 Entering Gaussian System, Link 0=g16.exe
 Input=Et2NH_Fine_ts.gjf
 Output=Et2NH_Fine_ts.log
 Initial command:
 D:\G16W\l1.exe ".\Gau-2672.inp" "Et2NH_Fine_ts.log" /scrdir=".\"
 Entering Link 1 = D:\G16W\l1.exe PID=     19100.
  
 Copyright (c) 1988,1990,1992,1993,1995,1998,2003,2009,2016,
            Gaussian, Inc.  All Rights Reserved.
  
 This is part of the Gaussian(R) 16 program.  It is based on
 the Gaussian(R) 09 system (copyright 2009, Gaussian, Inc.),
 the Gaussian(R) 03 system (copyright 2003, Gaussian, Inc.),
 the Gaussian(R) 98 system (copyright 1998, Gaussian, Inc.),
 the Gaussian(R) 94 system (copyright 1995, Gaussian, Inc.),
 the Gaussian 92(TM) system (copyright 1992, Gaussian, Inc.),
 the Gaussian 90(TM) system (copyright 1990, Gaussian, Inc.),
 the Gaussian 88(TM) system (copyright 1988, Gaussian, Inc.),
 the Gaussian 86(TM) system (copyright 1986, Carnegie Mellon
 University), and the Gaussian 82(TM) system (copyright 1983,
 Carnegie Mellon University). Gaussian is a federally registered
 trademark of Gaussian, Inc.
  
 This software contains proprietary and confidential information,
 including trade secrets, belonging to Gaussian, Inc.
  
 This software is provided under written license and may be
 used, copied, transmitted, or stored only in accord with that
 written license.
  
 The following legend is applicable only to US Government
 contracts under FAR:
  
                    RESTRICTED RIGHTS LEGEND
  
 Use, reproduction and disclosure by the US Government is
 subject to restrictions as set forth in subparagraphs (a)
 and (c) of the Commercial Computer Software - Restricted
 Rights clause in FAR 52.227-19.
  
 Gaussian, Inc.
 340 Quinnipiac St., Bldg. 40, Wallingford CT 06492
  
  
 ---------------------------------------------------------------
 Warning -- This program may not be used in any manner that
 competes with the business of Gaussian, Inc. or will provide
 assistance to any competitor of Gaussian, Inc.  The licensee
 of this program is prohibited from giving any competitor of
 Gaussian, Inc. access to this program.  By using this program,
 the user acknowledges that Gaussian, Inc. is engaged in the
 business of creating and licensing software in the field of
 computational chemistry and represents and warrants to the
 licensee that it is not a competitor of Gaussian, Inc. and that
 it will not use this program in any manner prohibited above.
 ---------------------------------------------------------------
  

 Cite this work as:
 Gaussian 16, Revision A.03,
 M. J. Frisch, G. W. Trucks, H. B. Schlegel, G. E. Scuseria, 
 M. A. Robb, J. R. Cheeseman, G. Scalmani, V. Barone, 
 G. A. Petersson, H. Nakatsuji, X. Li, M. Caricato, A. V. Marenich, 
 J. Bloino, B. G. Janesko, R. Gomperts, B. Mennucci, H. P. Hratchian, 
 J. V. Ortiz, A. F. Izmaylov, J. L. Sonnenberg, D. Williams-Young, 
 F. Ding, F. Lipparini, F. Egidi, J. Goings, B. Peng, A. Petrone, 
 T. Henderson, D. Ranasinghe, V. G. Zakrzewski, J. Gao, N. Rega, 
 G. Zheng, W. Liang, M. Hada, M. Ehara, K. Toyota, R. Fukuda, 
 J. Hasegawa, M. Ishida, T. Nakajima, Y. Honda, O. Kitao, H. Nakai, 
 T. Vreven, K. Throssell, J. A. Montgomery, Jr., J. E. Peralta, 
 F. Ogliaro, M. J. Bearpark, J. J. Heyd, E. N. Brothers, K. N. Kudin, 
 V. N. Staroverov, T. A. Keith, R. Kobayashi, J. Normand, 
 K. Raghavachari, A. P. Rendell, J. C. Burant, S. S. Iyengar, 
 J. Tomasi, M. Cossi, J. M. Millam, M. Klene, C. Adamo, R. Cammi, 
 J. W. Ochterski, R. L. Martin, K. Morokuma, O. Farkas, 
 J. B. Foresman, and D. J. Fox, Gaussian, Inc., Wallingford CT, 2016.
 
 ******************************************
 Gaussian 16:  EM64W-G16RevA.03 17-Dec-2016
                13-Dec-2025 
 ******************************************
 %nproc=6
 Will use up to    6 processors via shared memory.
 %mem=4GB
 -------------------------------
 #PM7 opt(ts,calcall,noeig) freq
 -------------------------------
 1/5=1,10=4,11=1,18=20,26=1,38=1/1,3;
 2/9=110,12=2,17=6,18=5,40=1/2;
 3/5=2,25=1,41=4200000,71=2,140=1/1,2,3;
 4/35=1/1;
 5/5=2,35=1,38=5/2;
 8/6=4,10=90,11=11/1;
 11/6=1,8=1,9=11,15=111,16=1/1,2,10;
 10/6=1/2;
 6/7=2,8=2,9=2,10=2,18=1,28=1/1;
 7/10=1,25=1/1,2,3,16;
 1/5=1,10=4,11=1,18=20,26=1/3(3);
 2/9=110/2;
 7/8=1,9=1,25=1,44=-1/16;
 99//99;
 2/9=110/2;
 3/5=2,25=1,41=4200000,71=2,135=20,140=1/1,2,3;
 4/5=5,16=3,35=1/1;
 5/5=2,35=1,38=5/2;
 8/6=4,10=90,11=11/1;
 11/6=1,8=1,9=11,15=111,16=1/1,2,10;
 10/6=1/2;
 7/10=1,25=1/1,2,3,16;
 1/5=1,10=4,11=1,18=20,26=1/3(-8);
 2/9=110/2;
 6/7=2,8=2,9=2,10=2,18=1,19=2,28=1/1;
 7/8=1,9=1,25=1,44=-1/16;
 99//99;
 Leave Link    1 at Sat Dec 13 13:38:14 2025, MaxMem=   536870912 cpu:               1.0 elap:               0.1
 (Enter D:\G16W\l101.exe)
 --------------------
 title: Et2NH_Fine_TS
 --------------------
 Symbolic Z-matrix:
 Charge =  0 Multiplicity = 1
 C                     4.22452  -1.43456  -0.15949 
 C                     2.79584  -1.01395  -0.48989 
 N                     2.18145  -0.17044   0.57987 
 C                     2.72803   1.22473   0.63041 
 C                     2.36581   2.04782  -0.60137 
 H                     4.62549  -2.09797  -0.94014 
 H                     4.29136  -1.98826   0.7848 
 H                     4.9094   -0.58082  -0.09571 
 H                     2.15078  -1.91663  -0.62029 
 H                     2.76088  -0.46635  -1.45844 
 H                     2.32218  -0.62194   1.49694 
 H                     2.31165   1.71384   1.54349 
 H                     3.83319   1.19985   0.75918 
 H                     2.7785    3.0639   -0.52054 
 H                     1.27852   2.16287  -0.72536 
 H                     2.76073   1.61996  -1.53002 
 C                     0.31932  -0.13744   0.32335 
 I                    -2.35017  -0.08687  -0.03593 
 H                     0.13661   0.64838   1.04796 
 H                     0.16831  -1.17082   0.61575 
 H                     0.36034   0.11169  -0.73073 
 
 Add virtual bond connecting atoms C17        and N3         Dist= 3.55D+00.
 Add virtual bond connecting atoms I18        and C17        Dist= 5.09D+00.
 Add virtual bond connecting atoms I18        and H19        Dist= 5.31D+00.
 Add virtual bond connecting atoms I18        and H20        Dist= 5.33D+00.
 Add virtual bond connecting atoms I18        and H21        Dist= 5.30D+00.
 Add atom     18 valence  4 ND=      0 dihedral      17     18     19     20
 Add atom     18 valence  4 ND=      0 dihedral      17     18     19     21
 Add atom     18 valence  4 ND=      0 dihedral      17     18     20     21
 ITRead=  0  0  0  0  0  0  0  0  0  0  0  0  0  0  0  0  0  0  0  0
 ITRead=  0
 MicOpt= -1 -1 -1 -1 -1 -1 -1 -1 -1 -1 -1 -1 -1 -1 -1 -1 -1 -1 -1 -1
 MicOpt= -1
 NAtoms=     21 NQM=       21 NQMF=       0 NMMI=      0 NMMIF=      0
                NMic=       0 NMicF=      0.
                    Isotopes and Nuclear Properties:
 (Nuclear quadrupole moments (NQMom) in fm**2, nuclear magnetic moments (NMagM)
  in nuclear magnetons)

  Atom         1           2           3           4           5           6           7           8           9          10
 IAtWgt=          12          12          14          12          12           1           1           1           1           1
 AtmWgt=  12.0000000  12.0000000  14.0030740  12.0000000  12.0000000   1.0078250   1.0078250   1.0078250   1.0078250   1.0078250
 NucSpn=           0           0           2           0           0           1           1           1           1           1
 AtZEff=   0.0000000   0.0000000   0.0000000   0.0000000   0.0000000   0.0000000   0.0000000   0.0000000   0.0000000   0.0000000
 NQMom=    0.0000000   0.0000000   2.0440000   0.0000000   0.0000000   0.0000000   0.0000000   0.0000000   0.0000000   0.0000000
 NMagM=    0.0000000   0.0000000   0.4037610   0.0000000   0.0000000   2.7928460   2.7928460   2.7928460   2.7928460   2.7928460
 AtZNuc=   6.0000000   6.0000000   7.0000000   6.0000000   6.0000000   1.0000000   1.0000000   1.0000000   1.0000000   1.0000000

  Atom        11          12          13          14          15          16          17          18          19          20
 IAtWgt=           1           1           1           1           1           1          12         127           1           1
 AtmWgt=   1.0078250   1.0078250   1.0078250   1.0078250   1.0078250   1.0078250  12.0000000 126.9004000   1.0078250   1.0078250
 NucSpn=           1           1           1           1           1           1           0           5           1           1
 AtZEff=   0.0000000   0.0000000   0.0000000   0.0000000   0.0000000   0.0000000   0.0000000   0.0000000   0.0000000   0.0000000
 NQMom=    0.0000000   0.0000000   0.0000000   0.0000000   0.0000000   0.0000000   0.0000000 -71.0000000   0.0000000   0.0000000
 NMagM=    2.7928460   2.7928460   2.7928460   2.7928460   2.7928460   2.7928460   0.0000000   2.8132800   2.7928460   2.7928460
 AtZNuc=   1.0000000   1.0000000   1.0000000   1.0000000   1.0000000   1.0000000   6.0000000  53.0000000   1.0000000   1.0000000

  Atom        21
 IAtWgt=           1
 AtmWgt=   1.0078250
 NucSpn=           1
 AtZEff=   0.0000000
 NQMom=    0.0000000
 NMagM=    2.7928460
 AtZNuc=   1.0000000
 Leave Link  101 at Sat Dec 13 13:38:14 2025, MaxMem=   536870912 cpu:               0.0 elap:               0.2
 (Enter D:\G16W\l103.exe)

 GradGradGradGradGradGradGradGradGradGradGradGradGradGradGradGradGradGrad
 Berny optimization.
 Initialization pass.
                           ----------------------------
                           !    Initial Parameters    !
                           ! (Angstroms and Degrees)  !
 --------------------------                            --------------------------
 ! Name  Definition              Value          Derivative Info.                !
 --------------------------------------------------------------------------------
 ! R1    R(1,2)                  1.5255         calculate D2E/DX2 analytically  !
 ! R2    R(1,6)                  1.1001         calculate D2E/DX2 analytically  !
 ! R3    R(1,7)                  1.0967         calculate D2E/DX2 analytically  !
 ! R4    R(1,8)                  1.0964         calculate D2E/DX2 analytically  !
 ! R5    R(2,3)                  1.4945         calculate D2E/DX2 analytically  !
 ! R6    R(2,9)                  1.1171         calculate D2E/DX2 analytically  !
 ! R7    R(2,10)                 1.1132         calculate D2E/DX2 analytically  !
 ! R8    R(3,4)                  1.4993         calculate D2E/DX2 analytically  !
 ! R9    R(3,11)                 1.0318         calculate D2E/DX2 analytically  !
 ! R10   R(3,17)                 1.88           calculate D2E/DX2 analytically  !
 ! R11   R(4,5)                  1.5251         calculate D2E/DX2 analytically  !
 ! R12   R(4,12)                 1.1164         calculate D2E/DX2 analytically  !
 ! R13   R(4,13)                 1.1129         calculate D2E/DX2 analytically  !
 ! R14   R(5,14)                 1.0997         calculate D2E/DX2 analytically  !
 ! R15   R(5,15)                 1.1004         calculate D2E/DX2 analytically  !
 ! R16   R(5,16)                 1.0961         calculate D2E/DX2 analytically  !
 ! R17   R(17,18)                2.694          calculate D2E/DX2 analytically  !
 ! R18   R(17,19)                1.0844         calculate D2E/DX2 analytically  !
 ! R19   R(17,20)                1.0845         calculate D2E/DX2 analytically  !
 ! R20   R(17,21)                1.0839         calculate D2E/DX2 analytically  !
 ! R21   R(18,19)                2.8106         calculate D2E/DX2 analytically  !
 ! R22   R(18,20)                2.8182         calculate D2E/DX2 analytically  !
 ! R23   R(18,21)                2.8052         calculate D2E/DX2 analytically  !
 ! A1    A(2,1,6)              110.7266         calculate D2E/DX2 analytically  !
 ! A2    A(2,1,7)              112.5053         calculate D2E/DX2 analytically  !
 ! A3    A(2,1,8)              112.5152         calculate D2E/DX2 analytically  !
 ! A4    A(6,1,7)              106.5177         calculate D2E/DX2 analytically  !
 ! A5    A(6,1,8)              106.4497         calculate D2E/DX2 analytically  !
 ! A6    A(7,1,8)              107.7583         calculate D2E/DX2 analytically  !
 ! A7    A(1,2,3)              112.6812         calculate D2E/DX2 analytically  !
 ! A8    A(1,2,9)              110.0765         calculate D2E/DX2 analytically  !
 ! A9    A(1,2,10)             110.7007         calculate D2E/DX2 analytically  !
 ! A10   A(3,2,9)              107.5928         calculate D2E/DX2 analytically  !
 ! A11   A(3,2,10)             109.4053         calculate D2E/DX2 analytically  !
 ! A12   A(9,2,10)             106.1292         calculate D2E/DX2 analytically  !
 ! A13   A(2,3,4)              113.5464         calculate D2E/DX2 analytically  !
 ! A14   A(2,3,11)             109.4608         calculate D2E/DX2 analytically  !
 ! A15   A(2,3,17)             108.6293         calculate D2E/DX2 analytically  !
 ! A16   A(4,3,11)             109.1171         calculate D2E/DX2 analytically  !
 ! A17   A(4,3,17)             110.4485         calculate D2E/DX2 analytically  !
 ! A18   A(11,3,17)            105.3102         calculate D2E/DX2 analytically  !
 ! A19   A(3,4,5)              112.8556         calculate D2E/DX2 analytically  !
 ! A20   A(3,4,12)             107.4155         calculate D2E/DX2 analytically  !
 ! A21   A(3,4,13)             110.1896         calculate D2E/DX2 analytically  !
 ! A22   A(5,4,12)             109.6055         calculate D2E/DX2 analytically  !
 ! A23   A(5,4,13)             109.9596         calculate D2E/DX2 analytically  !
 ! A24   A(12,4,13)            106.5912         calculate D2E/DX2 analytically  !
 ! A25   A(4,5,14)             110.4983         calculate D2E/DX2 analytically  !
 ! A26   A(4,5,15)             112.4646         calculate D2E/DX2 analytically  !
 ! A27   A(4,5,16)             112.8327         calculate D2E/DX2 analytically  !
 ! A28   A(14,5,15)            106.4097         calculate D2E/DX2 analytically  !
 ! A29   A(14,5,16)            106.7226         calculate D2E/DX2 analytically  !
 ! A30   A(15,5,16)            107.5393         calculate D2E/DX2 analytically  !
 ! A31   A(3,17,19)             95.0734         calculate D2E/DX2 analytically  !
 ! A32   A(3,17,20)             94.8417         calculate D2E/DX2 analytically  !
 ! A33   A(3,17,21)             95.6957         calculate D2E/DX2 analytically  !
 ! A34   A(19,17,20)           119.135          calculate D2E/DX2 analytically  !
 ! A35   A(19,17,21)           119.3168         calculate D2E/DX2 analytically  !
 ! A36   A(20,17,21)           119.1089         calculate D2E/DX2 analytically  !
 ! A37   A(19,18,20)            38.8088         calculate D2E/DX2 analytically  !
 ! A38   A(19,18,21)            38.929          calculate D2E/DX2 analytically  !
 ! A39   A(20,18,21)            38.8323         calculate D2E/DX2 analytically  !
 ! A40   L(3,17,18,15,-1)      180.018          calculate D2E/DX2 analytically  !
 ! A41   L(3,17,18,15,-2)      180.1987         calculate D2E/DX2 analytically  !
 ! D1    D(6,1,2,3)            176.8911         calculate D2E/DX2 analytically  !
 ! D2    D(6,1,2,9)             56.7904         calculate D2E/DX2 analytically  !
 ! D3    D(6,1,2,10)           -60.2295         calculate D2E/DX2 analytically  !
 ! D4    D(7,1,2,3)             57.8246         calculate D2E/DX2 analytically  !
 ! D5    D(7,1,2,9)            -62.2761         calculate D2E/DX2 analytically  !
 ! D6    D(7,1,2,10)          -179.2959         calculate D2E/DX2 analytically  !
 ! D7    D(8,1,2,3)            -64.1222         calculate D2E/DX2 analytically  !
 ! D8    D(8,1,2,9)            175.7771         calculate D2E/DX2 analytically  !
 ! D9    D(8,1,2,10)            58.7572         calculate D2E/DX2 analytically  !
 ! D10   D(1,2,3,4)             73.0778         calculate D2E/DX2 analytically  !
 ! D11   D(1,2,3,11)           -49.122          calculate D2E/DX2 analytically  !
 ! D12   D(1,2,3,17)          -163.6189         calculate D2E/DX2 analytically  !
 ! D13   D(9,2,3,4)           -165.4008         calculate D2E/DX2 analytically  !
 ! D14   D(9,2,3,11)            72.3995         calculate D2E/DX2 analytically  !
 ! D15   D(9,2,3,17)           -42.0975         calculate D2E/DX2 analytically  !
 ! D16   D(10,2,3,4)           -50.5231         calculate D2E/DX2 analytically  !
 ! D17   D(10,2,3,11)         -172.7229         calculate D2E/DX2 analytically  !
 ! D18   D(10,2,3,17)           72.7802         calculate D2E/DX2 analytically  !
 ! D19   D(2,3,4,5)             66.9281         calculate D2E/DX2 analytically  !
 ! D20   D(2,3,4,12)          -172.1519         calculate D2E/DX2 analytically  !
 ! D21   D(2,3,4,13)           -56.4177         calculate D2E/DX2 analytically  !
 ! D22   D(11,3,4,5)          -170.6818         calculate D2E/DX2 analytically  !
 ! D23   D(11,3,4,12)          -49.7618         calculate D2E/DX2 analytically  !
 ! D24   D(11,3,4,13)           65.9724         calculate D2E/DX2 analytically  !
 ! D25   D(17,3,4,5)           -55.3735         calculate D2E/DX2 analytically  !
 ! D26   D(17,3,4,12)           65.5466         calculate D2E/DX2 analytically  !
 ! D27   D(17,3,4,13)         -178.7192         calculate D2E/DX2 analytically  !
 ! D28   D(2,3,17,19)         -169.587          calculate D2E/DX2 analytically  !
 ! D29   D(2,3,17,20)           70.5416         calculate D2E/DX2 analytically  !
 ! D30   D(2,3,17,21)          -49.3978         calculate D2E/DX2 analytically  !
 ! D31   D(4,3,17,19)          -44.4436         calculate D2E/DX2 analytically  !
 ! D32   D(4,3,17,20)         -164.3149         calculate D2E/DX2 analytically  !
 ! D33   D(4,3,17,21)           75.7457         calculate D2E/DX2 analytically  !
 ! D34   D(11,3,17,19)          73.2317         calculate D2E/DX2 analytically  !
 ! D35   D(11,3,17,20)         -46.6397         calculate D2E/DX2 analytically  !
 ! D36   D(11,3,17,21)        -166.5791         calculate D2E/DX2 analytically  !
 ! D37   D(3,4,5,14)           179.5693         calculate D2E/DX2 analytically  !
 ! D38   D(3,4,5,15)            60.8219         calculate D2E/DX2 analytically  !
 ! D39   D(3,4,5,16)           -61.0435         calculate D2E/DX2 analytically  !
 ! D40   D(12,4,5,14)           59.9045         calculate D2E/DX2 analytically  !
 ! D41   D(12,4,5,15)          -58.8429         calculate D2E/DX2 analytically  !
 ! D42   D(12,4,5,16)          179.2917         calculate D2E/DX2 analytically  !
 ! D43   D(13,4,5,14)          -56.9575         calculate D2E/DX2 analytically  !
 ! D44   D(13,4,5,15)         -175.7049         calculate D2E/DX2 analytically  !
 ! D45   D(13,4,5,16)           62.4297         calculate D2E/DX2 analytically  !
 ! D46   D(17,18,19,20)        -32.0346         calculate D2E/DX2 analytically  !
 ! D47   D(17,18,19,21)         31.9395         calculate D2E/DX2 analytically  !
 ! D48   D(17,18,20,21)        -32.1158         calculate D2E/DX2 analytically  !
 --------------------------------------------------------------------------------
 Trust Radius=3.00D-01 FncErr=1.00D-07 GrdErr=1.00D-07 EigMax=2.50D+02 EigMin=1.00D-04
 Number of steps in this run=    122 maximum allowed number of steps=    126.
 Search for a saddle point of order  1.
 GradGradGradGradGradGradGradGradGradGradGradGradGradGradGradGradGradGrad

 Leave Link  103 at Sat Dec 13 13:38:14 2025, MaxMem=   536870912 cpu:               0.0 elap:               0.1
 (Enter D:\G16W\l202.exe)
                          Input orientation:                          
 ---------------------------------------------------------------------
 Center     Atomic      Atomic             Coordinates (Angstroms)
 Number     Number       Type             X           Y           Z
 ---------------------------------------------------------------------
      1          6           0        4.224521   -1.434561   -0.159486
      2          6           0        2.795840   -1.013955   -0.489891
      3          7           0        2.181448   -0.170442    0.579872
      4          6           0        2.728031    1.224726    0.630414
      5          6           0        2.365813    2.047823   -0.601366
      6          1           0        4.625490   -2.097967   -0.940137
      7          1           0        4.291361   -1.988264    0.784795
      8          1           0        4.909401   -0.580816   -0.095712
      9          1           0        2.150782   -1.916629   -0.620290
     10          1           0        2.760882   -0.466350   -1.458439
     11          1           0        2.322180   -0.621936    1.496943
     12          1           0        2.311647    1.713836    1.543485
     13          1           0        3.833185    1.199852    0.759178
     14          1           0        2.778500    3.063904   -0.520541
     15          1           0        1.278521    2.162866   -0.725355
     16          1           0        2.760733    1.619962   -1.530019
     17          6           0        0.319322   -0.137441    0.323354
     18         53           0       -2.350174   -0.086871   -0.035927
     19          1           0        0.136613    0.648378    1.047960
     20          1           0        0.168314   -1.170818    0.615749
     21          1           0        0.360339    0.111690   -0.730731
 ---------------------------------------------------------------------
                    Distance matrix (angstroms):
                    1          2          3          4          5
     1  C    0.000000
     2  C    1.525518   0.000000
     3  N    2.513721   1.494451   0.000000
     4  C    3.152020   2.504271   1.499267   0.000000
     5  C    3.972034   3.093838   2.519923   1.525114   0.000000
     6  H    1.100136   2.173804   3.463975   4.136094   4.733760
     7  H    1.096686   2.193327   2.792526   3.576470   4.681792
     8  H    1.096361   2.193200   2.840167   2.923289   3.692596
     9  H    2.178330   1.117105   2.119080   3.430100   3.970324
    10  H    2.183335   1.113184   2.139630   2.687773   2.685464
    11  H    2.650098   2.079794   1.031829   2.079843   3.395941
    12  H    4.058522   3.436554   2.120379   1.116379   2.171374
    13  H    2.817307   2.745396   2.153623   1.112908   2.173319
    14  H    4.738937   4.078011   3.468195   2.170212   1.099665
    15  H    4.684080   3.528440   2.821918   2.195289   1.100369
    16  H    3.653922   2.832069   2.827147   2.196532   1.096095
    17  C    4.143215   2.750052   1.880001   2.784181   3.133466
    18  I    6.712537   5.248526   4.574034   5.287009   5.207415
    19  H    4.744213   3.492825   2.251871   2.687372   3.106132
    20  H    4.138039   2.854985   2.248277   3.505852   4.082894
    21  H    4.201085   2.693835   2.261353   2.949158   2.790568
                    6          7          8          9         10
     6  H    0.000000
     7  H    1.760417   0.000000
     8  H    1.759377   1.771490   0.000000
     9  H    2.501872   2.561537   3.109591   0.000000
    10  H    2.531319   3.112987   2.546814   1.782702   0.000000
    11  H    3.663777   2.500336   3.038413   2.487626   2.991814
    12  H    5.104125   4.266195   3.834152   4.229430   3.737188
    13  H    3.793551   3.220973   2.249412   3.800772   2.973868
    14  H    5.498395   5.432960   4.243254   5.020925   3.652760
    15  H    5.422456   5.346928   4.594293   4.173027   3.106056
    16  H    4.200985   4.551975   3.393735   3.702313   2.087540
    17  C    4.897260   4.406310   4.630445   2.722172   3.040425
    18  I    7.315873   6.956929   7.276605   4.893680   5.318876
    19  H    5.625385   4.927785   5.059487   3.663222   3.796241
    20  H    4.811113   4.206698   4.830340   2.452388   3.394104
    21  H    4.808113   4.707394   4.645081   2.707759   2.574159
                   11         12         13         14         15
    11  H    0.000000
    12  H    2.336259   0.000000
    13  H    2.479182   1.787287   0.000000
    14  H    4.226569   2.510147   2.494941   0.000000
    15  H    3.712540   2.533103   3.107659   1.761748   0.000000
    16  H    3.792220   3.107558   2.562629   1.761911   1.771773
    17  C    2.371389   2.980823   3.784908   4.124115   2.703935
    18  I    4.946400   5.241151   6.365672   6.038670   4.324818
    19  H    2.567486   2.472149   3.748622   3.908264   2.596589
    20  H    2.391007   3.711576   4.367142   5.102656   3.760927
    21  H    3.057705   3.398019   3.932504   3.821943   2.247312
                   16         17         18         19         20
    16  H    0.000000
    17  C    3.533263   0.000000
    18  I    5.591687   2.694040   0.000000
    19  H    3.804728   1.084411   2.810607   0.000000
    20  H    4.371889   1.084512   2.818227   1.870103   0.000000
    21  H    2.945443   1.083902   2.805184   1.871317   1.869414
                   21
    21  H    0.000000
 Stoichiometry    C5H14IN
 Framework group  C1[X(C5H14IN)]
 Deg. of freedom    57
 Full point group                 C1      NOp   1
 Largest Abelian subgroup         C1      NOp   1
 Largest concise Abelian subgroup C1      NOp   1
                         Standard orientation:                         
 ---------------------------------------------------------------------
 Center     Atomic      Atomic             Coordinates (Angstroms)
 Number     Number       Type             X           Y           Z
 ---------------------------------------------------------------------
      1          6           0        4.224521   -1.434561   -0.159486
      2          6           0        2.795840   -1.013955   -0.489891
      3          7           0        2.181448   -0.170442    0.579872
      4          6           0        2.728031    1.224726    0.630414
      5          6           0        2.365813    2.047823   -0.601366
      6          1           0        4.625490   -2.097967   -0.940137
      7          1           0        4.291361   -1.988264    0.784795
      8          1           0        4.909401   -0.580816   -0.095712
      9          1           0        2.150782   -1.916629   -0.620290
     10          1           0        2.760882   -0.466350   -1.458439
     11          1           0        2.322180   -0.621936    1.496943
     12          1           0        2.311647    1.713836    1.543485
     13          1           0        3.833185    1.199852    0.759178
     14          1           0        2.778500    3.063904   -0.520541
     15          1           0        1.278521    2.162866   -0.725355
     16          1           0        2.760733    1.619962   -1.530019
     17          6           0        0.319322   -0.137441    0.323354
     18         53           0       -2.350174   -0.086871   -0.035927
     19          1           0        0.136613    0.648378    1.047960
     20          1           0        0.168314   -1.170818    0.615749
     21          1           0        0.360339    0.111690   -0.730731
 ---------------------------------------------------------------------
 Rotational constants (GHZ):           2.8738201           0.3734259           0.3453311
 Leave Link  202 at Sat Dec 13 13:38:14 2025, MaxMem=   536870912 cpu:               0.0 elap:               0.1
 (Enter D:\G16W\l301.exe)
 Standard basis: VSTO-6G (5D, 7F)
 Ernie: Thresh=  0.10000D-02 Tol=  0.10000D-05 Strict=F.
 EHB=         0.000000000 Number of Hydrogen Bonds=     0
  NNHCO=     0 NNPyr=     0 NCTC=     0               EPep=         0.000000000
    EC=       166.328413699  ECS=         3.107231715   EG=         0.587405750
   EHC=         0.000548182  EAt=       -41.819221151  AtH=         2.744811147
 EPDDG=         0.000000000  ECC=       170.023599346 EAtT=        44.564032299
  EHyb=         0.000000000
 There are    48 symmetry adapted cartesian basis functions of A   symmetry.
 There are    47 symmetry adapted basis functions of A   symmetry.
    47 basis functions,   288 primitive gaussians,    48 cartesian basis functions
    23 alpha electrons       23 beta electrons
       nuclear repulsion energy       214.5876316443 Hartrees.
 IExCor=    0 DFT=F Ex=HF Corr=None ExCW=0 ScaHFX=  1.000000
 ScaDFX=  1.000000  1.000000  1.000000  1.000000 ScalE2=  1.000000  1.000000
 IRadAn=      5 IRanWt=     -1 IRanGd=            0 ICorTp=0 IEmpDi=251
 Integral buffers will be    131072 words long.
 Regular integral format.
 Two-electron integral symmetry is turned off.
 R6Disp:  PM7 Dispersion energy=       -0.0040648877 Hartrees.
 Nuclear repulsion after empirical dispersion term =      214.5835667566 Hartrees.
 Leave Link  301 at Sat Dec 13 13:38:14 2025, MaxMem=   536870912 cpu:               0.0 elap:               0.1
 (Enter D:\G16W\l302.exe)
 Do NDO integrals.
 NPDir=0 NMtPBC=     1 NCelOv=     1 NCel=       1 NClECP=     1 NCelD=      1
         NCelK=      1 NCelE2=     1 NClLst=     1 CellRange=     0.0.
 One-electron integrals computed using PRISM.
 NBasis=    47 RedAO= F EigKep=  0.00D+00  NBF=    47
 NBsUse=    47 1.00D-04 EigRej=  0.00D+00 NBFU=    47
 Leave Link  302 at Sat Dec 13 13:38:15 2025, MaxMem=   536870912 cpu:               1.0 elap:               0.2
 (Enter D:\G16W\l303.exe)
 DipDrv:  MaxL=1.
 Leave Link  303 at Sat Dec 13 13:38:15 2025, MaxMem=   536870912 cpu:               0.0 elap:               0.1
 (Enter D:\G16W\l401.exe)
 Nonelectrostatic core Hamiltonian diagonalized for initial guess.
 JPrj=0 DoOrth=F DoCkMO=F.
 Leave Link  401 at Sat Dec 13 13:38:15 2025, MaxMem=   536870912 cpu:               0.0 elap:               0.1
 (Enter D:\G16W\l502.exe)
 Keep J ints in memory in canonical form, NReq=1854414.
 FoFCou: FMM=F IPFlag=           0 FMFlag=           0 FMFlg1=           0
         NFxFlg=           0 DoJE=F BraDBF=F KetDBF=F FulRan=T
         wScrn=  0.000000 ICntrl=       600 IOpCl=  2 I1Cent=           0 NGrid=           0
         NMat0=    1 NMatS0=    119 NMatT0=    0 NMatD0=    1 NMtDS0=    0 NMtDT0=    0
 Symmetry not used in FoFCou.
 Two-electron integral symmetry not used.
 Closed shell SCF:
 Using DIIS extrapolation, IDIIS=  1040.
 Overlap will be assumed to be unity.
 NGot=   536870912 LenX=   536798895 LenY=   536796150
 Requested convergence on RMS density matrix=1.00D-08 within 128 cycles.
 Requested convergence on MAX density matrix=1.00D-06.
 Requested convergence on             energy=1.00D-06.
 No special actions if energy rises.

 Cycle   1  Pass 1  IDiag  1:
 E= 0.751689276223345    
 DIIS: error= 4.52D-02 at cycle   1 NSaved=   1.
 NSaved= 1 IEnMin= 1 EnMin= 0.751689276223345     IErMin= 1 ErrMin= 4.52D-02
 ErrMax= 4.52D-02  0.00D+00 EMaxC= 1.00D-01 BMatC= 1.27D-01 BMatP= 1.27D-01
 IDIUse=3 WtCom= 5.48D-01 WtEn= 4.52D-01
 Coeff-Com:  0.100D+01
 Coeff-En:   0.100D+01
 Coeff:      0.100D+01
 GapD=    2.000 DampG=2.000 DampE=0.500 DampFc=1.0000 IDamp=-1.
 RMSDP=1.67D-02 MaxDP=1.70D-01              OVMax= 0.00D+00

 Cycle   2  Pass 1  IDiag  1:
 E= 0.192594046232756     Delta-E=       -0.559095229991 Rises=F Damp=F
 DIIS: error= 2.18D-02 at cycle   2 NSaved=   2.
 NSaved= 2 IEnMin= 2 EnMin= 0.192594046232756     IErMin= 2 ErrMin= 2.18D-02
 ErrMax= 2.18D-02  0.00D+00 EMaxC= 1.00D-01 BMatC= 2.78D-02 BMatP= 1.27D-01
 IDIUse=3 WtCom= 7.82D-01 WtEn= 2.18D-01
 Coeff-Com: -0.600D+00 0.160D+01
 Coeff-En:   0.000D+00 0.100D+01
 Coeff:     -0.469D+00 0.147D+01
 RMSDP=1.14D-02 MaxDP=1.41D-01 DE=-5.59D-01 OVMax= 0.00D+00

 Cycle   3  Pass 1  IDiag  1:
 E= 0.362416487980397E-01 Delta-E=       -0.156352397435 Rises=F Damp=F
 DIIS: error= 6.94D-03 at cycle   3 NSaved=   3.
 NSaved= 3 IEnMin= 3 EnMin= 0.362416487980397E-01 IErMin= 3 ErrMin= 6.94D-03
 ErrMax= 6.94D-03  0.00D+00 EMaxC= 1.00D-01 BMatC= 2.73D-03 BMatP= 2.78D-02
 IDIUse=3 WtCom= 9.31D-01 WtEn= 6.94D-02
 Coeff-Com:  0.119D+00-0.637D+00 0.152D+01
 Coeff-En:   0.000D+00 0.000D+00 0.100D+01
 Coeff:      0.110D+00-0.593D+00 0.148D+01
 RMSDP=4.41D-03 MaxDP=4.91D-02 DE=-1.56D-01 OVMax= 0.00D+00

 Cycle   4  Pass 1  IDiag  3:
 E= 0.200583319322050E-01 Delta-E=       -0.016183316866 Rises=F Damp=F
 DIIS: error= 1.26D-03 at cycle   4 NSaved=   4.
 NSaved= 4 IEnMin= 4 EnMin= 0.200583319322050E-01 IErMin= 4 ErrMin= 1.26D-03
 ErrMax= 1.26D-03  0.00D+00 EMaxC= 1.00D-01 BMatC= 1.10D-04 BMatP= 2.73D-03
 IDIUse=3 WtCom= 9.87D-01 WtEn= 1.26D-02
 Coeff-Com:  0.346D-01-0.830D-01-0.611D-01 0.111D+01
 Coeff-En:   0.000D+00 0.000D+00 0.000D+00 0.100D+01
 Coeff:      0.342D-01-0.819D-01-0.603D-01 0.111D+01
 Gap=     0.266 Goal=   None    Shift=    0.000
 RMSDP=7.64D-04 MaxDP=9.58D-03 DE=-1.62D-02 OVMax= 1.55D-02

 Cycle   5  Pass 1  IDiag  3:
 E= 0.195026336040200E-01 Delta-E=       -0.000555698328 Rises=F Damp=F
 DIIS: error= 3.71D-04 at cycle   5 NSaved=   5.
 NSaved= 5 IEnMin= 5 EnMin= 0.195026336040200E-01 IErMin= 5 ErrMin= 3.71D-04
 ErrMax= 3.71D-04  0.00D+00 EMaxC= 1.00D-01 BMatC= 9.18D-06 BMatP= 1.10D-04
 IDIUse=3 WtCom= 9.96D-01 WtEn= 3.71D-03
 Coeff-Com: -0.152D-01 0.510D-01-0.473D-01-0.418D+00 0.143D+01
 Coeff-En:   0.000D+00 0.000D+00 0.000D+00 0.000D+00 0.100D+01
 Coeff:     -0.151D-01 0.508D-01-0.471D-01-0.416D+00 0.143D+01
 Gap=     0.265 Goal=   None    Shift=    0.000
 RMSDP=2.67D-04 MaxDP=3.23D-03 DE=-5.56D-04 OVMax= 4.17D-03

 Cycle   6  Pass 1  IDiag  3:
 E= 0.194460342272009E-01 Delta-E=       -0.000056599377 Rises=F Damp=F
 DIIS: error= 8.09D-05 at cycle   6 NSaved=   6.
 NSaved= 6 IEnMin= 6 EnMin= 0.194460342272009E-01 IErMin= 6 ErrMin= 8.09D-05
 ErrMax= 8.09D-05  0.00D+00 EMaxC= 1.00D-01 BMatC= 3.33D-07 BMatP= 9.18D-06
 IDIUse=1 WtCom= 1.00D+00 WtEn= 0.00D+00
 Coeff-Com:  0.180D-02-0.779D-02 0.109D-01 0.819D-01-0.441D+00 0.135D+01
 Coeff:      0.180D-02-0.779D-02 0.109D-01 0.819D-01-0.441D+00 0.135D+01
 Gap=     0.264 Goal=   None    Shift=    0.000
 RMSDP=5.17D-05 MaxDP=6.11D-04 DE=-5.66D-05 OVMax= 7.61D-04

 Cycle   7  Pass 1  IDiag  3:
 E= 0.194440313144071E-01 Delta-E=       -0.000002002913 Rises=F Damp=F
 DIIS: error= 1.50D-05 at cycle   7 NSaved=   7.
 NSaved= 7 IEnMin= 7 EnMin= 0.194440313144071E-01 IErMin= 7 ErrMin= 1.50D-05
 ErrMax= 1.50D-05  0.00D+00 EMaxC= 1.00D-01 BMatC= 1.10D-08 BMatP= 3.33D-07
 IDIUse=1 WtCom= 1.00D+00 WtEn= 0.00D+00
 Coeff-Com: -0.248D-03 0.139D-02-0.203D-02-0.225D-01 0.130D+00-0.492D+00
 Coeff-Com:  0.139D+01
 Coeff:     -0.248D-03 0.139D-02-0.203D-02-0.225D-01 0.130D+00-0.492D+00
 Coeff:      0.139D+01
 Gap=     0.264 Goal=   None    Shift=    0.000
 RMSDP=8.18D-06 MaxDP=9.22D-05 DE=-2.00D-06 OVMax= 1.30D-04

 Cycle   8  Pass 1  IDiag  3:
 E= 0.194439685562884E-01 Delta-E=       -0.000000062758 Rises=F Damp=F
 DIIS: error= 4.83D-06 at cycle   8 NSaved=   8.
 NSaved= 8 IEnMin= 8 EnMin= 0.194439685562884E-01 IErMin= 8 ErrMin= 4.83D-06
 ErrMax= 4.83D-06  0.00D+00 EMaxC= 1.00D-01 BMatC= 9.37D-10 BMatP= 1.10D-08
 IDIUse=1 WtCom= 1.00D+00 WtEn= 0.00D+00
 Coeff-Com: -0.397D-04 0.175D-04-0.488D-04 0.308D-02-0.174D-01 0.775D-01
 Coeff-Com: -0.435D+00 0.137D+01
 Coeff:     -0.397D-04 0.175D-04-0.488D-04 0.308D-02-0.174D-01 0.775D-01
 Coeff:     -0.435D+00 0.137D+01
 Gap=     0.264 Goal=   None    Shift=    0.000
 RMSDP=2.47D-06 MaxDP=2.23D-05 DE=-6.28D-08 OVMax= 3.35D-05

 Cycle   9  Pass 1  IDiag  3:
 E= 0.194439628632495E-01 Delta-E=       -0.000000005693 Rises=F Damp=F
 DIIS: error= 1.23D-06 at cycle   9 NSaved=   9.
 NSaved= 9 IEnMin= 9 EnMin= 0.194439628632495E-01 IErMin= 9 ErrMin= 1.23D-06
 ErrMax= 1.23D-06  0.00D+00 EMaxC= 1.00D-01 BMatC= 9.10D-11 BMatP= 9.37D-10
 IDIUse=1 WtCom= 1.00D+00 WtEn= 0.00D+00
 Coeff-Com:  0.107D-04-0.399D-04 0.111D-03 0.322D-03-0.271D-02 0.966D-02
 Coeff-Com:  0.373D-01-0.494D+00 0.145D+01
 Coeff:      0.107D-04-0.399D-04 0.111D-03 0.322D-03-0.271D-02 0.966D-02
 Coeff:      0.373D-01-0.494D+00 0.145D+01
 Gap=     0.264 Goal=   None    Shift=    0.000
 RMSDP=8.65D-07 MaxDP=9.23D-06 DE=-5.69D-09 OVMax= 1.09D-05

 Cycle  10  Pass 1  IDiag  3:
 E= 0.194439622581228E-01 Delta-E=       -0.000000000605 Rises=F Damp=F
 DIIS: error= 3.27D-07 at cycle  10 NSaved=  10.
 NSaved=10 IEnMin=10 EnMin= 0.194439622581228E-01 IErMin=10 ErrMin= 3.27D-07
 ErrMax= 3.27D-07  0.00D+00 EMaxC= 1.00D-01 BMatC= 5.99D-12 BMatP= 9.10D-11
 IDIUse=1 WtCom= 1.00D+00 WtEn= 0.00D+00
 Coeff-Com: -0.538D-06 0.881D-05-0.378D-04-0.243D-03 0.177D-02-0.751D-02
 Coeff-Com:  0.534D-02 0.145D+00-0.666D+00 0.152D+01
 Coeff:     -0.538D-06 0.881D-05-0.378D-04-0.243D-03 0.177D-02-0.751D-02
 Coeff:      0.534D-02 0.145D+00-0.666D+00 0.152D+01
 Gap=     0.264 Goal=   None    Shift=    0.000
 RMSDP=2.27D-07 MaxDP=2.58D-06 DE=-6.05D-10 OVMax= 2.70D-06

 Cycle  11  Pass 1  IDiag  3:
 E= 0.194439622183324E-01 Delta-E=       -0.000000000040 Rises=F Damp=F
 DIIS: error= 8.50D-08 at cycle  11 NSaved=  11.
 NSaved=11 IEnMin=11 EnMin= 0.194439622183324E-01 IErMin=11 ErrMin= 8.50D-08
 ErrMax= 8.50D-08  0.00D+00 EMaxC= 1.00D-01 BMatC= 3.50D-13 BMatP= 5.99D-12
 IDIUse=1 WtCom= 1.00D+00 WtEn= 0.00D+00
 Coeff-Com: -0.224D-06-0.122D-05 0.546D-05 0.875D-04-0.545D-03 0.234D-02
 Coeff-Com: -0.451D-02-0.231D-01 0.155D+00-0.552D+00 0.142D+01
 Coeff:     -0.224D-06-0.122D-05 0.546D-05 0.875D-04-0.545D-03 0.234D-02
 Coeff:     -0.451D-02-0.231D-01 0.155D+00-0.552D+00 0.142D+01
 Gap=     0.264 Goal=   None    Shift=    0.000
 RMSDP=5.24D-08 MaxDP=6.15D-07 DE=-3.98D-11 OVMax= 5.26D-07

 Cycle  12  Pass 1  IDiag  3:
 E= 0.194439622166556E-01 Delta-E=       -0.000000000002 Rises=F Damp=F
 DIIS: error= 1.84D-08 at cycle  12 NSaved=  12.
 NSaved=12 IEnMin=12 EnMin= 0.194439622166556E-01 IErMin=12 ErrMin= 1.84D-08
 ErrMax= 1.84D-08  0.00D+00 EMaxC= 1.00D-01 BMatC= 2.03D-14 BMatP= 3.50D-13
 IDIUse=1 WtCom= 1.00D+00 WtEn= 0.00D+00
 Coeff-Com: -0.525D-07 0.269D-06 0.146D-06-0.577D-05 0.177D-04-0.424D-04
 Coeff-Com:  0.197D-03-0.121D-02 0.727D-03 0.395D-01-0.355D+00 0.132D+01
 Coeff:     -0.525D-07 0.269D-06 0.146D-06-0.577D-05 0.177D-04-0.424D-04
 Coeff:      0.197D-03-0.121D-02 0.727D-03 0.395D-01-0.355D+00 0.132D+01
 Gap=     0.264 Goal=   None    Shift=    0.000
 RMSDP=1.28D-08 MaxDP=1.27D-07 DE=-1.68D-12 OVMax= 2.06D-07

 Cycle  13  Pass 1  IDiag  3:
 E= 0.194439622164282E-01 Delta-E=        0.000000000000 Rises=F Damp=F
 DIIS: error= 4.01D-09 at cycle  13 NSaved=  13.
 NSaved=13 IEnMin=13 EnMin= 0.194439622164282E-01 IErMin=13 ErrMin= 4.01D-09
 ErrMax= 4.01D-09  0.00D+00 EMaxC= 1.00D-01 BMatC= 1.13D-15 BMatP= 2.03D-14
 IDIUse=1 WtCom= 1.00D+00 WtEn= 0.00D+00
 Coeff-Com:  0.606D-07-0.232D-06-0.833D-08 0.551D-06 0.278D-05-0.314D-04
 Coeff-Com: -0.726D-04 0.184D-02-0.765D-02 0.128D-01 0.436D-01-0.423D+00
 Coeff-Com:  0.137D+01
 Coeff:      0.606D-07-0.232D-06-0.833D-08 0.551D-06 0.278D-05-0.314D-04
 Coeff:     -0.726D-04 0.184D-02-0.765D-02 0.128D-01 0.436D-01-0.423D+00
 Coeff:      0.137D+01
 Gap=     0.264 Goal=   None    Shift=    0.000
 RMSDP=3.18D-09 MaxDP=3.38D-08 DE=-2.27D-13 OVMax= 6.07D-08

 Cycle  14  Pass 2  IDiag  1:
 SCF Done:  E(RPM7) =  0.194439622164E-01 A.U. after   14 cycles
            NFock= 13  Conv=0.32D-08     -V/T= 1.0003
 KE=-7.115885309377D+01 PE=-3.282457726758D+02 EE= 1.848405029752D+02
 Leave Link  502 at Sat Dec 13 13:38:16 2025, MaxMem=   536870912 cpu:               1.0 elap:               0.7
 (Enter D:\G16W\l801.exe)
 Range of M.O.s used for correlation:     1    47
 NBasis=    47 NAE=    23 NBE=    23 NFC=     0 NFV=     0
 NROrb=     47 NOA=    23 NOB=    23 NVA=    24 NVB=    24
 Leave Link  801 at Sat Dec 13 13:38:16 2025, MaxMem=   536870912 cpu:               0.0 elap:               0.1
 (Enter D:\G16W\l1101.exe)
 Using compressed storage, NAtomX=    21.
 Will process     22 centers per pass.
 R6Disp: Adding PM7 dispersion energy 1st derivatives to the gradient.
 Leave Link 1101 at Sat Dec 13 13:38:16 2025, MaxMem=   536870912 cpu:               0.0 elap:               0.1
 (Enter D:\G16W\l1102.exe)
 Symmetrizing basis deriv contribution to polar:
 IMax=3 JMax=2 DiffMx= 0.00D+00
 Leave Link 1102 at Sat Dec 13 13:38:16 2025, MaxMem=   536870912 cpu:               0.0 elap:               0.1
 (Enter D:\G16W\l1110.exe)
 Forming Gx(P) for the SCF density, NAtomX=    21.
 Integral derivatives from FoFJK, PRISM(SPDF).
 Do as many integral derivatives as possible in FoFJK.
 G2DrvN: MDV=     536810346.
 G2DrvN: will do    22 centers at a time, making    1 passes.
 Calling FoFCou, ICntrl=  3107 FMM=F I1Cent=   0 AccDes= 0.00D+00.
 FoFJK:  IHMeth=43 ICntrl=    3107 DoSepK=F KAlg= 0 I1Cent=           0 FoldK=F
 IRaf=         0 NMat=       1 IRICut=       1 DoRegI=T DoRafI=F ISym2E= 0 IDoP0=3 IntGTp=3.
 FoFCou: FMM=F IPFlag=           0 FMFlag=      100000 FMFlg1=           0
         NFxFlg=           0 DoJE=F BraDBF=F KetDBF=F FulRan=T
         wScrn=  0.000000 ICntrl=      3107 IOpCl=  0 I1Cent=           0 NGrid=           0
         NMat0=    1 NMatS0=      1 NMatT0=    0 NMatD0=    1 NMtDS0=    0 NMtDT0=    0
 Symmetry not used in FoFCou.
 End of G2Drv F.D. properties file   721 does not exist.
 End of G2Drv F.D. properties file   722 does not exist.
 End of G2Drv F.D. properties file   788 does not exist.
 Leave Link 1110 at Sat Dec 13 13:38:17 2025, MaxMem=   536870912 cpu:               1.0 elap:               0.2
 (Enter D:\G16W\l1002.exe)
 Minotr:  Closed shell wavefunction.
          IDoAtm=111111111111111111111
          Direct CPHF calculation.
          Differentiating once with respect to electric field.
                with respect to dipole field.
          Differentiating once with respect to nuclear coordinates.
          Electric field/nuclear overlap derivatives assumed to be zero.
          Requested convergence is 1.0D-08 RMS, and 1.0D-07 maximum.
          NewPWx=T KeepS1=F KeepF1=F KeepIn=T MapXYZ=F SortEE=F KeepMc=T.
 Keep J ints in memory in canonical form, NReq=1856374.
 FoFCou: FMM=F IPFlag=           0 FMFlag=           0 FMFlg1=           0
         NFxFlg=           0 DoJE=F BraDBF=F KetDBF=F FulRan=T
         wScrn=  0.000000 ICntrl=       600 IOpCl=  2 I1Cent=           0 NGrid=           0
         NMat0=    1 NMatS0=    119 NMatT0=    0 NMatD0=    1 NMtDS0=    0 NMtDT0=    0
 Symmetry not used in FoFCou.
 Two-electron integral symmetry not used.
          MDV=     536870912 using IRadAn=       1.
          Solving linear equations separately, MaxMat=       0.
          There are    66 degrees of freedom in the 1st order CPHF.  IDoFFX=5 NUNeed=    66.
 LinEq1:  Iter=  0 NonCon=    66 RMS=3.66D-01 Max=7.88D+00 NDo=    66
 AX will form    66 AO Fock derivatives at one time.
 LinEq1:  Iter=  1 NonCon=    66 RMS=3.63D-02 Max=2.00D-01 NDo=    66
 LinEq1:  Iter=  2 NonCon=    66 RMS=5.60D-03 Max=3.25D-02 NDo=    66
 LinEq1:  Iter=  3 NonCon=    66 RMS=1.01D-03 Max=7.72D-03 NDo=    66
 LinEq1:  Iter=  4 NonCon=    66 RMS=1.70D-04 Max=1.02D-03 NDo=    66
 LinEq1:  Iter=  5 NonCon=    66 RMS=2.42D-05 Max=1.49D-04 NDo=    66
 LinEq1:  Iter=  6 NonCon=    60 RMS=3.39D-06 Max=2.34D-05 NDo=    66
 LinEq1:  Iter=  7 NonCon=    18 RMS=5.64D-07 Max=4.82D-06 NDo=    66
 LinEq1:  Iter=  8 NonCon=     3 RMS=1.09D-07 Max=7.04D-07 NDo=    66
 LinEq1:  Iter=  9 NonCon=     2 RMS=1.97D-08 Max=1.31D-07 NDo=    66
 LinEq1:  Iter= 10 NonCon=     0 RMS=3.81D-09 Max=2.05D-08 NDo=    66
 Linear equations converged to 1.000D-08 1.000D-07 after    10 iterations.
 FullF1:  Do perturbations      1 to       3.
 Isotropic polarizability for W=    0.000000       86.55 Bohr**3.
 End of Minotr F.D. properties file   721 does not exist.
 End of Minotr F.D. properties file   722 does not exist.
 End of Minotr F.D. properties file   788 does not exist.
 Leave Link 1002 at Sat Dec 13 13:38:17 2025, MaxMem=   536870912 cpu:               0.0 elap:               0.4
 (Enter D:\G16W\l601.exe)
 Copying SCF densities to generalized density rwf, IOpCl= 0 IROHF=0.

 **********************************************************************

            Population analysis using the SCF density.

 **********************************************************************

 Orbital symmetries:
       Occupied  (A) (A) (A) (A) (A) (A) (A) (A) (A) (A) (A) (A)
                 (A) (A) (A) (A) (A) (A) (A) (A) (A) (A) (A)
       Virtual   (A) (A) (A) (A) (A) (A) (A) (A) (A) (A) (A) (A)
                 (A) (A) (A) (A) (A) (A) (A) (A) (A) (A) (A) (A)
 The electronic state is 1-A.
 Alpha  occ. eigenvalues --   -1.38163  -1.03622  -1.01517  -0.94237  -0.86329
 Alpha  occ. eigenvalues --   -0.79308  -0.70509  -0.70359  -0.65532  -0.61959
 Alpha  occ. eigenvalues --   -0.58790  -0.57988  -0.55868  -0.54798  -0.53404
 Alpha  occ. eigenvalues --   -0.53045  -0.51289  -0.49214  -0.48917  -0.46104
 Alpha  occ. eigenvalues --   -0.28542  -0.28347  -0.28340
 Alpha virt. eigenvalues --   -0.01915   0.05025   0.09612   0.09898   0.10024
 Alpha virt. eigenvalues --    0.13580   0.14427   0.15546   0.15935   0.16263
 Alpha virt. eigenvalues --    0.16681   0.16782   0.17277   0.17590   0.18349
 Alpha virt. eigenvalues --    0.18478   0.18691   0.20612   0.21518   4.83912
 Alpha virt. eigenvalues --    4.83922   4.84053   4.84892   4.84892
          Condensed to atoms (all electrons):
               1          2          3          4          5          6
     1  C    4.479042   0.000000   0.000000   0.000000   0.000000   0.000000
     2  C    0.000000   4.119689   0.000000   0.000000   0.000000   0.000000
     3  N    0.000000   0.000000   5.385959   0.000000   0.000000   0.000000
     4  C    0.000000   0.000000   0.000000   4.119770   0.000000   0.000000
     5  C    0.000000   0.000000   0.000000   0.000000   4.455411   0.000000
     6  H    0.000000   0.000000   0.000000   0.000000   0.000000   0.831077
     7  H    0.000000   0.000000   0.000000   0.000000   0.000000   0.000000
     8  H    0.000000   0.000000   0.000000   0.000000   0.000000   0.000000
     9  H    0.000000   0.000000   0.000000   0.000000   0.000000   0.000000
    10  H    0.000000   0.000000   0.000000   0.000000   0.000000   0.000000
    11  H    0.000000   0.000000   0.000000   0.000000   0.000000   0.000000
    12  H    0.000000   0.000000   0.000000   0.000000   0.000000   0.000000
    13  H    0.000000   0.000000   0.000000   0.000000   0.000000   0.000000
    14  H    0.000000   0.000000   0.000000   0.000000   0.000000   0.000000
    15  H    0.000000   0.000000   0.000000   0.000000   0.000000   0.000000
    16  H    0.000000   0.000000   0.000000   0.000000   0.000000   0.000000
    17  C    0.000000   0.000000   0.000000   0.000000   0.000000   0.000000
    18  I    0.000000   0.000000   0.000000   0.000000   0.000000   0.000000
    19  H    0.000000   0.000000   0.000000   0.000000   0.000000   0.000000
    20  H    0.000000   0.000000   0.000000   0.000000   0.000000   0.000000
    21  H    0.000000   0.000000   0.000000   0.000000   0.000000   0.000000
               7          8          9         10         11         12
     1  C    0.000000   0.000000   0.000000   0.000000   0.000000   0.000000
     2  C    0.000000   0.000000   0.000000   0.000000   0.000000   0.000000
     3  N    0.000000   0.000000   0.000000   0.000000   0.000000   0.000000
     4  C    0.000000   0.000000   0.000000   0.000000   0.000000   0.000000
     5  C    0.000000   0.000000   0.000000   0.000000   0.000000   0.000000
     6  H    0.000000   0.000000   0.000000   0.000000   0.000000   0.000000
     7  H    0.844131   0.000000   0.000000   0.000000   0.000000   0.000000
     8  H    0.000000   0.845851   0.000000   0.000000   0.000000   0.000000
     9  H    0.000000   0.000000   0.835847   0.000000   0.000000   0.000000
    10  H    0.000000   0.000000   0.000000   0.837480   0.000000   0.000000
    11  H    0.000000   0.000000   0.000000   0.000000   0.726714   0.000000
    12  H    0.000000   0.000000   0.000000   0.000000   0.000000   0.843851
    13  H    0.000000   0.000000   0.000000   0.000000   0.000000   0.000000
    14  H    0.000000   0.000000   0.000000   0.000000   0.000000   0.000000
    15  H    0.000000   0.000000   0.000000   0.000000   0.000000   0.000000
    16  H    0.000000   0.000000   0.000000   0.000000   0.000000   0.000000
    17  C    0.000000   0.000000   0.000000   0.000000   0.000000   0.000000
    18  I    0.000000   0.000000   0.000000   0.000000   0.000000   0.000000
    19  H    0.000000   0.000000   0.000000   0.000000   0.000000   0.000000
    20  H    0.000000   0.000000   0.000000   0.000000   0.000000   0.000000
    21  H    0.000000   0.000000   0.000000   0.000000   0.000000   0.000000
              13         14         15         16         17         18
     1  C    0.000000   0.000000   0.000000   0.000000   0.000000   0.000000
     2  C    0.000000   0.000000   0.000000   0.000000   0.000000   0.000000
     3  N    0.000000   0.000000   0.000000   0.000000   0.000000   0.000000
     4  C    0.000000   0.000000   0.000000   0.000000   0.000000   0.000000
     5  C    0.000000   0.000000   0.000000   0.000000   0.000000   0.000000
     6  H    0.000000   0.000000   0.000000   0.000000   0.000000   0.000000
     7  H    0.000000   0.000000   0.000000   0.000000   0.000000   0.000000
     8  H    0.000000   0.000000   0.000000   0.000000   0.000000   0.000000
     9  H    0.000000   0.000000   0.000000   0.000000   0.000000   0.000000
    10  H    0.000000   0.000000   0.000000   0.000000   0.000000   0.000000
    11  H    0.000000   0.000000   0.000000   0.000000   0.000000   0.000000
    12  H    0.000000   0.000000   0.000000   0.000000   0.000000   0.000000
    13  H    0.861518   0.000000   0.000000   0.000000   0.000000   0.000000
    14  H    0.000000   0.837015   0.000000   0.000000   0.000000   0.000000
    15  H    0.000000   0.000000   0.823426   0.000000   0.000000   0.000000
    16  H    0.000000   0.000000   0.000000   0.845637   0.000000   0.000000
    17  C    0.000000   0.000000   0.000000   0.000000   4.039171   0.000000
    18  I    0.000000   0.000000   0.000000   0.000000   0.000000   7.728357
    19  H    0.000000   0.000000   0.000000   0.000000   0.000000   0.000000
    20  H    0.000000   0.000000   0.000000   0.000000   0.000000   0.000000
    21  H    0.000000   0.000000   0.000000   0.000000   0.000000   0.000000
              19         20         21
     1  C    0.000000   0.000000   0.000000
     2  C    0.000000   0.000000   0.000000
     3  N    0.000000   0.000000   0.000000
     4  C    0.000000   0.000000   0.000000
     5  C    0.000000   0.000000   0.000000
     6  H    0.000000   0.000000   0.000000
     7  H    0.000000   0.000000   0.000000
     8  H    0.000000   0.000000   0.000000
     9  H    0.000000   0.000000   0.000000
    10  H    0.000000   0.000000   0.000000
    11  H    0.000000   0.000000   0.000000
    12  H    0.000000   0.000000   0.000000
    13  H    0.000000   0.000000   0.000000
    14  H    0.000000   0.000000   0.000000
    15  H    0.000000   0.000000   0.000000
    16  H    0.000000   0.000000   0.000000
    17  C    0.000000   0.000000   0.000000
    18  I    0.000000   0.000000   0.000000
    19  H    0.845988   0.000000   0.000000
    20  H    0.000000   0.849991   0.000000
    21  H    0.000000   0.000000   0.844076
 Mulliken charges:
               1
     1  C   -0.479042
     2  C   -0.119689
     3  N   -0.385959
     4  C   -0.119770
     5  C   -0.455411
     6  H    0.168923
     7  H    0.155869
     8  H    0.154149
     9  H    0.164153
    10  H    0.162520
    11  H    0.273286
    12  H    0.156149
    13  H    0.138482
    14  H    0.162985
    15  H    0.176574
    16  H    0.154363
    17  C   -0.039171
    18  I   -0.728357
    19  H    0.154012
    20  H    0.150009
    21  H    0.155924
 Sum of Mulliken charges =   0.00000
 Mulliken charges with hydrogens summed into heavy atoms:
               1
     1  C   -0.000101
     2  C    0.206984
     3  N   -0.112673
     4  C    0.174861
     5  C    0.038512
    17  C    0.420773
    18  I   -0.728357
 APT charges:
               1
     1  C   -0.713239
     2  C   -0.098757
     3  N   -0.919245
     4  C   -0.147563
     5  C   -0.601431
     6  H    0.220274
     7  H    0.203474
     8  H    0.204017
     9  H    0.151973
    10  H    0.164440
    11  H    0.168281
    12  H    0.152947
    13  H    0.127261
    14  H    0.208876
    15  H    0.197580
    16  H    0.193656
    17  C    1.634349
    18  I   -1.251416
    19  H    0.034144
    20  H    0.037307
    21  H    0.033064
 Sum of APT charges =  -0.00001
 APT charges with hydrogens summed into heavy atoms:
               1
     1  C   -0.085475
     2  C    0.217657
     3  N   -0.750963
     4  C    0.132645
     5  C   -0.001319
    17  C    1.738863
    18  I   -1.251416
 Charge=              0.0000 electrons
 Dipole moment (field-independent basis, Debye):
    X=             14.2758    Y=              0.0521    Z=              1.2954  Tot=             14.3345
 N-N= 2.145835667566D+02 E-N=-3.282457728653D+02  KE=-7.115885309377D+01
  Exact polarizability: 172.805  -0.388  46.840  10.533   0.989  39.997
 Approx polarizability:  96.232  -0.801  31.759   7.352   0.629  29.538
 Leave Link  601 at Sat Dec 13 13:38:17 2025, MaxMem=   536870912 cpu:               0.0 elap:               0.1
 (Enter D:\G16W\l701.exe)
 ... and contract with generalized density number  0.
 Compute integral second derivatives.
 R6Disp: Adding PM7 dispersion energy 2nd derivatives to the Hessian.
 Leave Link  701 at Sat Dec 13 13:38:17 2025, MaxMem=   536870912 cpu:               0.0 elap:               0.2
 (Enter D:\G16W\l702.exe)
 L702 exits ... SP integral derivatives will be done elsewhere.
 Leave Link  702 at Sat Dec 13 13:38:18 2025, MaxMem=   536870912 cpu:               0.0 elap:               0.1
 (Enter D:\G16W\l703.exe)
 Integral derivatives from FoFJK, PRISM(SPDF).
 Compute integral second derivatives, UseDBF=F ICtDFT=           0.
 Calling FoFJK, ICntrl=    100127 FMM=F ISym2X=0 I1Cent= 0 IOpClX= 0 NMat=1 NMatS=1 NMatT=0.
 FoFJK:  IHMeth=43 ICntrl=  100127 DoSepK=F KAlg= 0 I1Cent=           0 FoldK=F
 IRaf=         0 NMat=       1 IRICut=       1 DoRegI=T DoRafI=F ISym2E= 0 IDoP0=3 IntGTp=3.
 FoFCou: FMM=F IPFlag=           0 FMFlag=      100000 FMFlg1=         800
         NFxFlg=           0 DoJE=F BraDBF=F KetDBF=F FulRan=T
         wScrn=  0.000000 ICntrl=    100127 IOpCl=  0 I1Cent=           0 NGrid=           0
         NMat0=    1 NMatS0=      1 NMatT0=    0 NMatD0=    1 NMtDS0=    0 NMtDT0=    0
 Symmetry not used in FoFCou.
 Leave Link  703 at Sat Dec 13 13:38:18 2025, MaxMem=   536870912 cpu:               0.0 elap:               0.2
 (Enter D:\G16W\l716.exe)
 Dipole        = 5.61652044D+00 2.04902585D-02 5.09665213D-01
 Polarizability= 1.72804857D+02-3.88235324D-01 4.68395829D+01
                 1.05331673D+01 9.89465536D-01 3.99969793D+01
 HyperPolar    = 6.54307022D+03 1.72755344D+01 5.41397562D+01
                -3.74811214D+00 6.09246098D+02 1.51800853D+01
                 1.57640654D+01 9.47647223D+01-8.95172459D+00
                 1.68981874D+01
 ***** Axes restored to original set *****
 -------------------------------------------------------------------
 Center     Atomic                   Forces (Hartrees/Bohr)
 Number     Number              X              Y              Z
 -------------------------------------------------------------------
      1        6           0.000017685   -0.000037252   -0.000012363
      2        6          -0.000009617   -0.000036964   -0.000003658
      3        7          -0.004489339    0.000057943   -0.000582651
      4        6          -0.000024102    0.000043198   -0.000002964
      5        6          -0.000016070    0.000038405    0.000002277
      6        1          -0.000007329    0.000008823    0.000003423
      7        1          -0.000001813   -0.000000500    0.000000050
      8        1           0.000002426   -0.000005576    0.000005008
      9        1           0.000002826   -0.000007259    0.000000256
     10        1           0.000004564    0.000000594   -0.000008989
     11        1          -0.000006042    0.000008949   -0.000015746
     12        1          -0.000004606    0.000006638    0.000007581
     13        1           0.000007136    0.000001575    0.000003290
     14        1           0.000001417   -0.000002802   -0.000001217
     15        1          -0.000004067    0.000003538   -0.000003960
     16        1          -0.000002358    0.000011385   -0.000011865
     17        6           0.004450012   -0.000096467    0.000661975
     18       53           0.000087420    0.000012498   -0.000002300
     19        1           0.000010268   -0.000018130   -0.000019783
     20        1          -0.000001360    0.000015898   -0.000016495
     21        1          -0.000017050   -0.000004495   -0.000001869
 -------------------------------------------------------------------
 Cartesian Forces:  Max     0.004489339 RMS     0.000804406
 FormGI is forming the generalized inverse of G from B-inverse, IUseBI=4.
 Leave Link  716 at Sat Dec 13 13:38:18 2025, MaxMem=   536870912 cpu:               0.0 elap:               0.2
 (Enter D:\G16W\l103.exe)

 GradGradGradGradGradGradGradGradGradGradGradGradGradGradGradGradGradGrad
 Berny optimization.
 Red2BG is reusing G-inverse.
 Internal  Forces:  Max     0.004572622 RMS     0.000432618
 Search for a saddle point.
 Step number   1 out of a maximum of  122
 All quantities printed in internal units (Hartrees-Bohrs-Radians)
 Swapping is turned off.
 Second derivative matrix not updated -- analytic derivatives used.
 ITU=  0
     Eigenvalues ---   -0.05340   0.00042   0.00079   0.00120   0.00151
     Eigenvalues ---    0.00293   0.01713   0.01766   0.01966   0.02702
     Eigenvalues ---    0.03175   0.03251   0.03386   0.03425   0.03651
     Eigenvalues ---    0.03843   0.03872   0.03877   0.03992   0.04079
     Eigenvalues ---    0.04364   0.04907   0.07340   0.07517   0.08040
     Eigenvalues ---    0.08090   0.10613   0.11191   0.11316   0.11413
     Eigenvalues ---    0.11639   0.12810   0.13059   0.13363   0.13444
     Eigenvalues ---    0.14569   0.16515   0.19444   0.21673   0.22538
     Eigenvalues ---    0.22696   0.24783   0.24831   0.25443   0.25588
     Eigenvalues ---    0.25622   0.25644   0.25698   0.26524   0.27087
     Eigenvalues ---    0.27586   0.27891   0.28788   0.35512   0.38646
     Eigenvalues ---    0.44092   0.48358
 Eigenvectors required to have negative eigenvalues:
                          R10       R17       A31       A33       A32
   1                    0.70758  -0.54341  -0.24202  -0.24198  -0.24004
                          A35       A36       A34       R22       R21
   1                    0.07560   0.07465   0.07449  -0.04456  -0.03605
 RFO step:  Lambda0=1.910951069D-04 Lambda=-1.34515696D-04.
 Linear search not attempted -- option 19 set.
 Iteration  1 RMS(Cart)=  0.01009847 RMS(Int)=  0.00007878
 Iteration  2 RMS(Cart)=  0.00005994 RMS(Int)=  0.00005853
 Iteration  3 RMS(Cart)=  0.00000001 RMS(Int)=  0.00005853
 ITry= 1 IFail=0 DXMaxC= 4.43D-02 DCOld= 1.00D+10 DXMaxT= 3.00D-01 DXLimC= 3.00D+00 Rises=F
 Variable       Old X    -DE/DX   Delta X   Delta X   Delta X     New X
                                 (Linear)    (Quad)   (Total)
    R1        2.88281   0.00002   0.00000   0.00072   0.00072   2.88353
    R2        2.07896  -0.00001   0.00000  -0.00045  -0.00045   2.07850
    R3        2.07244   0.00000   0.00000  -0.00010  -0.00010   2.07234
    R4        2.07182   0.00000   0.00000  -0.00016  -0.00016   2.07166
    R5        2.82410   0.00006   0.00000  -0.00026  -0.00026   2.82385
    R6        2.11102   0.00000   0.00000  -0.00033  -0.00033   2.11069
    R7        2.10361   0.00001   0.00000  -0.00037  -0.00037   2.10324
    R8        2.83320   0.00008   0.00000  -0.00004  -0.00004   2.83317
    R9        1.94987  -0.00002   0.00000  -0.00009  -0.00009   1.94979
   R10        3.55269  -0.00457   0.00000   0.01363   0.01363   3.56631
   R11        2.88205   0.00004   0.00000   0.00069   0.00069   2.88274
   R12        2.10965   0.00001   0.00000  -0.00036  -0.00036   2.10929
   R13        2.10309   0.00001   0.00000  -0.00022  -0.00022   2.10287
   R14        2.07807   0.00000   0.00000  -0.00042  -0.00042   2.07765
   R15        2.07940   0.00000   0.00000  -0.00036  -0.00036   2.07904
   R16        2.07132   0.00000   0.00000  -0.00005  -0.00005   2.07127
   R17        5.09100  -0.00005   0.00000  -0.06335  -0.06341   5.02759
   R18        2.04924  -0.00002   0.00000  -0.00025  -0.00024   2.04900
   R19        2.04943  -0.00002   0.00000  -0.00024  -0.00023   2.04920
   R20        2.04828   0.00001   0.00000  -0.00007  -0.00006   2.04822
   R21        5.31128  -0.00001   0.00000  -0.02976  -0.02975   5.28153
   R22        5.32568   0.00000   0.00000  -0.03108  -0.03107   5.29461
   R23        5.30103  -0.00003   0.00000  -0.02832  -0.02830   5.27273
    A1        1.93254  -0.00001   0.00000   0.00009   0.00009   1.93263
    A2        1.96359   0.00000   0.00000  -0.00076  -0.00076   1.96283
    A3        1.96376   0.00001   0.00000  -0.00048  -0.00048   1.96328
    A4        1.85908   0.00000   0.00000   0.00070   0.00070   1.85978
    A5        1.85790   0.00000   0.00000   0.00069   0.00069   1.85858
    A6        1.88074   0.00000   0.00000  -0.00009  -0.00009   1.88065
    A7        1.96666   0.00005   0.00000   0.00145   0.00145   1.96811
    A8        1.92120  -0.00003   0.00000  -0.00056  -0.00056   1.92064
    A9        1.93209  -0.00001   0.00000  -0.00029  -0.00029   1.93180
   A10        1.87785  -0.00001   0.00000  -0.00071  -0.00071   1.87714
   A11        1.90948  -0.00001   0.00000  -0.00011  -0.00011   1.90937
   A12        1.85230   0.00001   0.00000   0.00013   0.00013   1.85243
   A13        1.98176   0.00008   0.00000  -0.00184  -0.00185   1.97991
   A14        1.91045  -0.00003   0.00000  -0.00171  -0.00171   1.90874
   A15        1.89594  -0.00002   0.00000   0.00278   0.00278   1.89872
   A16        1.90445  -0.00001   0.00000  -0.00174  -0.00175   1.90271
   A17        1.92769  -0.00006   0.00000   0.00318   0.00318   1.93087
   A18        1.83801   0.00003   0.00000  -0.00059  -0.00059   1.83742
   A19        1.96970   0.00006   0.00000  -0.00057  -0.00057   1.96914
   A20        1.87475  -0.00002   0.00000  -0.00015  -0.00015   1.87461
   A21        1.92317  -0.00002   0.00000   0.00145   0.00145   1.92462
   A22        1.91298  -0.00003   0.00000  -0.00043  -0.00043   1.91254
   A23        1.91916  -0.00001   0.00000  -0.00032  -0.00032   1.91883
   A24        1.86037   0.00001   0.00000   0.00005   0.00005   1.86041
   A25        1.92856  -0.00001   0.00000   0.00007   0.00007   1.92863
   A26        1.96288   0.00000   0.00000  -0.00074  -0.00074   1.96213
   A27        1.96930   0.00002   0.00000  -0.00054  -0.00054   1.96877
   A28        1.85720   0.00000   0.00000   0.00107   0.00107   1.85827
   A29        1.86266  -0.00001   0.00000   0.00074   0.00074   1.86340
   A30        1.87692  -0.00001   0.00000  -0.00044  -0.00044   1.87648
   A31        1.65934  -0.00003   0.00000  -0.01507  -0.01512   1.64422
   A32        1.65530   0.00002   0.00000  -0.01435  -0.01441   1.64089
   A33        1.67020  -0.00003   0.00000  -0.01481  -0.01487   1.65534
   A34        2.07930   0.00001   0.00000   0.00470   0.00436   2.08366
   A35        2.08247   0.00001   0.00000   0.00462   0.00427   2.08674
   A36        2.07884   0.00000   0.00000   0.00441   0.00406   2.08290
   A37        0.67734   0.00000   0.00000   0.00492   0.00488   0.68222
   A38        0.67944   0.00000   0.00000   0.00477   0.00472   0.68416
   A39        0.67775   0.00000   0.00000   0.00480   0.00476   0.68251
   A40        3.14191  -0.00004   0.00000   0.00034   0.00034   3.14225
   A41        3.14506   0.00000   0.00000   0.00052   0.00052   3.14558
    D1        3.08733   0.00000   0.00000   0.00377   0.00377   3.09110
    D2        0.99118   0.00000   0.00000   0.00409   0.00409   0.99527
    D3       -1.05120   0.00001   0.00000   0.00445   0.00445  -1.04675
    D4        1.00923   0.00000   0.00000   0.00333   0.00333   1.01256
    D5       -1.08692   0.00000   0.00000   0.00365   0.00365  -1.08327
    D6       -3.12930   0.00001   0.00000   0.00401   0.00401  -3.12529
    D7       -1.11914   0.00000   0.00000   0.00438   0.00438  -1.11476
    D8        3.06789   0.00000   0.00000   0.00470   0.00470   3.07259
    D9        1.02551   0.00001   0.00000   0.00506   0.00506   1.03057
   D10        1.27545   0.00004   0.00000   0.00650   0.00650   1.28195
   D11       -0.85734   0.00001   0.00000   0.01129   0.01128  -0.84605
   D12       -2.85569   0.00000   0.00000   0.01139   0.01139  -2.84430
   D13       -2.88679   0.00003   0.00000   0.00623   0.00623  -2.88056
   D14        1.26361   0.00000   0.00000   0.01101   0.01101   1.27462
   D15       -0.73474  -0.00001   0.00000   0.01112   0.01112  -0.72362
   D16       -0.88180   0.00002   0.00000   0.00595   0.00595  -0.87585
   D17       -3.01458  -0.00001   0.00000   0.01073   0.01073  -3.00385
   D18        1.27025  -0.00001   0.00000   0.01084   0.01084   1.28109
   D19        1.16812   0.00001   0.00000   0.01165   0.01165   1.17976
   D20       -3.00462   0.00000   0.00000   0.01066   0.01066  -2.99396
   D21       -0.98467  -0.00001   0.00000   0.01139   0.01139  -0.97328
   D22       -2.97896   0.00003   0.00000   0.00690   0.00690  -2.97206
   D23       -0.86851   0.00002   0.00000   0.00591   0.00591  -0.86260
   D24        1.15144   0.00001   0.00000   0.00664   0.00664   1.15808
   D25       -0.96645   0.00002   0.00000   0.00696   0.00696  -0.95949
   D26        1.14400   0.00001   0.00000   0.00597   0.00597   1.14997
   D27       -3.11924   0.00000   0.00000   0.00670   0.00670  -3.11253
   D28       -2.95985  -0.00002   0.00000  -0.00283  -0.00284  -2.96269
   D29        1.23118  -0.00003   0.00000  -0.00320  -0.00320   1.22798
   D30       -0.86215  -0.00003   0.00000  -0.00303  -0.00303  -0.86518
   D31       -0.77569   0.00003   0.00000  -0.00109  -0.00109  -0.77678
   D32       -2.86784   0.00002   0.00000  -0.00146  -0.00145  -2.86929
   D33        1.32201   0.00002   0.00000  -0.00128  -0.00128   1.32073
   D34        1.27813   0.00000   0.00000  -0.00188  -0.00188   1.27626
   D35       -0.81402   0.00000   0.00000  -0.00224  -0.00224  -0.81626
   D36       -2.90735   0.00000   0.00000  -0.00207  -0.00207  -2.90942
   D37        3.13407  -0.00001   0.00000   0.00506   0.00506   3.13914
   D38        1.06154   0.00000   0.00000   0.00415   0.00415   1.06570
   D39       -1.06541  -0.00001   0.00000   0.00569   0.00569  -1.05972
   D40        1.04553   0.00000   0.00000   0.00591   0.00591   1.05144
   D41       -1.02700   0.00000   0.00000   0.00500   0.00500  -1.02200
   D42        3.12923   0.00000   0.00000   0.00654   0.00654   3.13577
   D43       -0.99410   0.00001   0.00000   0.00630   0.00630  -0.98779
   D44       -3.06663   0.00001   0.00000   0.00539   0.00539  -3.06124
   D45        1.08960   0.00001   0.00000   0.00693   0.00693   1.09653
   D46       -0.55911   0.00000   0.00000  -0.00036  -0.00037  -0.55947
   D47        0.55745   0.00000   0.00000   0.00065   0.00064   0.55808
   D48       -0.56053  -0.00001   0.00000  -0.00058  -0.00057  -0.56109
         Item               Value     Threshold  Converged?
 Maximum Force            0.004573     0.000450     NO 
 RMS     Force            0.000433     0.000300     NO 
 Maximum Displacement     0.044332     0.001800     NO 
 RMS     Displacement     0.010099     0.001200     NO 
 Predicted change in Energy= 2.821743D-05
 Lowest energy point so far.  Saving SCF results.
 GradGradGradGradGradGradGradGradGradGradGradGradGradGradGradGradGradGrad

 Leave Link  103 at Sat Dec 13 13:38:18 2025, MaxMem=   536870912 cpu:               0.0 elap:               0.2
 (Enter D:\G16W\l202.exe)
                          Input orientation:                          
 ---------------------------------------------------------------------
 Center     Atomic      Atomic             Coordinates (Angstroms)
 Number     Number       Type             X           Y           Z
 ---------------------------------------------------------------------
      1          6           0        4.222389   -1.441669   -0.153102
      2          6           0        2.797949   -1.011732   -0.491466
      3          7           0        2.179772   -0.167873    0.575649
      4          6           0        2.728471    1.226450    0.626042
      5          6           0        2.357620    2.052989   -0.601310
      6          1           0        4.625940   -2.101779   -0.934878
      7          1           0        4.278666   -2.001394    0.788252
      8          1           0        4.910367   -0.591442   -0.078101
      9          1           0        2.149085   -1.910500   -0.628307
     10          1           0        2.772599   -0.461744   -1.458737
     11          1           0        2.321546   -0.618326    1.493020
     12          1           0        2.318667    1.713627    1.542884
     13          1           0        3.834415    1.201457    0.746755
     14          1           0        2.776166    3.066685   -0.523728
     15          1           0        1.269738    2.172452   -0.713718
     16          1           0        2.740426    1.623434   -1.534215
     17          6           0        0.310190   -0.137889    0.320048
     18         53           0       -2.326715   -0.092657   -0.030488
     19          1           0        0.142893    0.647542    1.048595
     20          1           0        0.176776   -1.173206    0.613683
     21          1           0        0.365790    0.112562   -0.733023
 ---------------------------------------------------------------------
                    Distance matrix (angstroms):
                    1          2          3          4          5
     1  C    0.000000
     2  C    1.525898   0.000000
     3  N    2.515137   1.494314   0.000000
     4  C    3.155584   2.502621   1.499248   0.000000
     5  C    3.986337   3.098140   2.519741   1.525481   0.000000
     6  H    1.099897   2.174022   3.464885   4.136904   4.745381
     7  H    1.096634   2.193087   2.795060   3.584466   4.696736
     8  H    1.096277   2.193131   2.839533   2.925956   3.712584
     9  H    2.178121   1.116930   2.118301   3.427759   3.969063
    10  H    2.183306   1.112988   2.139283   2.682955   2.689102
    11  H    2.645905   2.078439   1.031783   2.078565   3.394620
    12  H    4.056651   3.434512   2.120112   1.116190   2.171233
    13  H    2.818932   2.739645   2.154572   1.112793   2.173318
    14  H    4.749123   4.078603   3.467950   2.170417   1.099444
    15  H    4.700458   3.538906   2.822721   2.194944   1.100180
    16  H    3.674036   2.834561   2.823940   2.196463   1.096070
    17  C    4.150784   2.758822   1.887212   2.793409   3.137008
    18  I    6.687722   5.226794   4.547690   5.265546   5.183882
    19  H    4.738266   3.489169   2.244428   2.683076   3.098788
    20  H    4.126380   2.849206   2.241459   3.502805   4.079293
    21  H    4.198249   2.690313   2.254284   2.944496   2.783881
                    6          7          8          9         10
     6  H    0.000000
     7  H    1.760640   0.000000
     8  H    1.759569   1.771320   0.000000
     9  H    2.503075   2.559300   3.109230   0.000000
    10  H    2.529628   3.112510   2.548142   1.782492   0.000000
    11  H    3.661360   2.497978   3.028388   2.489876   2.990123
    12  H    5.100994   4.267605   3.828556   4.228134   3.734705
    13  H    3.790220   3.233780   2.247787   3.796762   2.959372
    14  H    5.504882   5.446487   4.258555   5.017622   3.650214
    15  H    5.438939   5.360090   4.614900   4.177445   3.122921
    16  H    4.218006   4.571587   3.425578   3.695814   2.086791
    17  C    4.904835   4.409158   4.639597   2.724530   3.054900
    18  I    7.293415   6.924209   7.254406   4.867723   5.308400
    19  H    5.620556   4.918259   5.053052   3.657921   3.799024
    20  H    4.801599   4.188303   4.819118   2.444616   3.396969
    21  H    4.805510   4.700392   4.645182   2.698868   2.578607
                   11         12         13         14         15
    11  H    0.000000
    12  H    2.332488   0.000000
    13  H    2.481389   1.787073   0.000000
    14  H    4.225311   2.512161   2.492608   0.000000
    15  H    3.710045   2.530420   3.106990   1.762122   0.000000
    16  H    3.790131   3.107177   2.564703   1.762196   1.771316
    17  C    2.377443   2.992895   3.794217   4.130652   2.706858
    18  I    4.919729   5.226637   6.343371   6.021969   4.304880
    19  H    2.558606   2.472823   3.745032   3.906223   2.588605
    20  H    2.383520   3.712805   4.362918   5.101686   3.761647
    21  H    3.051957   3.399542   3.925148   3.818449   2.249586
                   16         17         18         19         20
    16  H    0.000000
    17  C    3.527973   0.000000
    18  I    5.557164   2.660486   0.000000
    19  H    3.790837   1.084283   2.794866   0.000000
    20  H    4.359697   1.084390   2.801786   1.872276   0.000000
    21  H    2.926352   1.083870   2.790207   1.873512   1.871508
                   21
    21  H    0.000000
 Stoichiometry    C5H14IN
 Framework group  C1[X(C5H14IN)]
 Deg. of freedom    57
 Full point group                 C1      NOp   1
 RotChk:  IX=0 Diff= 3.26D-03
 Largest Abelian subgroup         C1      NOp   1
 Largest concise Abelian subgroup C1      NOp   1
                         Standard orientation:                         
 ---------------------------------------------------------------------
 Center     Atomic      Atomic             Coordinates (Angstroms)
 Number     Number       Type             X           Y           Z
 ---------------------------------------------------------------------
      1          6           0        4.210638   -1.441871   -0.154020
      2          6           0        2.786861   -1.010207   -0.492974
      3          7           0        2.168252   -0.167947    0.575154
      4          6           0        2.717949    1.225861    0.628794
      5          6           0        2.348948    2.055053   -0.597327
      6          1           0        4.614475   -2.100772   -0.936669
      7          1           0        4.265553   -2.003459    0.786304
      8          1           0        4.899180   -0.592311   -0.076686
      9          1           0        2.137459   -1.908218   -0.632202
     10          1           0        2.762893   -0.458329   -1.459203
     11          1           0        2.308770   -0.620281    1.491793
     12          1           0        2.307595    1.711573    1.546167
     13          1           0        3.823752    1.199800    0.750563
     14          1           0        2.768178    3.068280   -0.517365
     15          1           0        1.261269    2.175553   -0.710590
     16          1           0        2.732364    1.627014   -1.530678
     17          6           0        0.298950   -0.136059    0.317744
     18         53           0       -2.337568   -0.088161   -0.035338
     19          1           0        0.131515    0.648087    1.047642
     20          1           0        0.164463   -1.171841    0.609241
     21          1           0        0.355792    0.116387   -0.734784
 ---------------------------------------------------------------------
 Rotational constants (GHZ):           2.8660161           0.3770107           0.3481708
 Leave Link  202 at Sat Dec 13 13:38:19 2025, MaxMem=   536870912 cpu:               0.0 elap:               0.1
 (Enter D:\G16W\l301.exe)
 Standard basis: VSTO-6G (5D, 7F)
 Ernie: Thresh=  0.10000D-02 Tol=  0.10000D-05 Strict=F.
 EHB=         0.000000000 Number of Hydrogen Bonds=     0
  NNHCO=     0 NNPyr=     0 NCTC=     0               EPep=         0.000000000
    EC=       166.428650745  ECS=         3.111329873   EG=         0.587294755
   EHC=         0.000549085  EAt=       -41.819221151  AtH=         2.744811147
 EPDDG=         0.000000000  ECC=       170.127824457 EAtT=        44.564032299
  EHyb=         0.000000000
 There are    48 symmetry adapted cartesian basis functions of A   symmetry.
 There are    47 symmetry adapted basis functions of A   symmetry.
    47 basis functions,   288 primitive gaussians,    48 cartesian basis functions
    23 alpha electrons       23 beta electrons
       nuclear repulsion energy       214.6918567554 Hartrees.
 IExCor=    0 DFT=F Ex=HF Corr=None ExCW=0 ScaHFX=  1.000000
 ScaDFX=  1.000000  1.000000  1.000000  1.000000 ScalE2=  1.000000  1.000000
 IRadAn=      5 IRanWt=     -1 IRanGd=            0 ICorTp=0 IEmpDi=251
 Integral buffers will be    131072 words long.
 Regular integral format.
 Two-electron integral symmetry is turned off.
 R6Disp:  PM7 Dispersion energy=       -0.0040827985 Hartrees.
 Nuclear repulsion after empirical dispersion term =      214.6877739569 Hartrees.
 Leave Link  301 at Sat Dec 13 13:38:19 2025, MaxMem=   536870912 cpu:               0.0 elap:               0.2
 (Enter D:\G16W\l302.exe)
 Do NDO integrals.
 NPDir=0 NMtPBC=     1 NCelOv=     1 NCel=       1 NClECP=     1 NCelD=      1
         NCelK=      1 NCelE2=     1 NClLst=     1 CellRange=     0.0.
 One-electron integrals computed using PRISM.
 NBasis=    47 RedAO= F EigKep=  0.00D+00  NBF=    47
 NBsUse=    47 1.00D-04 EigRej=  0.00D+00 NBFU=    47
 Leave Link  302 at Sat Dec 13 13:38:19 2025, MaxMem=   536870912 cpu:               0.0 elap:               0.2
 (Enter D:\G16W\l303.exe)
 DipDrv:  MaxL=1.
 Leave Link  303 at Sat Dec 13 13:38:19 2025, MaxMem=   536870912 cpu:               0.0 elap:               0.1
 (Enter D:\G16W\l401.exe)
 Initial guess from the checkpoint file:  ".\Gau-19100.chk"
 B after Tr=     0.000000    0.000000    0.000000
         Rot=    1.000000   -0.000563    0.000049   -0.000200 Ang=  -0.07 deg.
 Guess basis will be translated and rotated to current coordinates.
 JPrj=0 DoOrth=T DoCkMO=T.
 Leave Link  401 at Sat Dec 13 13:38:20 2025, MaxMem=   536870912 cpu:               1.0 elap:               0.2
 (Enter D:\G16W\l502.exe)
 Keep J ints in memory in canonical form, NReq=1854414.
 FoFCou: FMM=F IPFlag=           0 FMFlag=           0 FMFlg1=           0
         NFxFlg=           0 DoJE=F BraDBF=F KetDBF=F FulRan=T
         wScrn=  0.000000 ICntrl=       600 IOpCl=  2 I1Cent=           0 NGrid=           0
         NMat0=    1 NMatS0=    119 NMatT0=    0 NMatD0=    1 NMtDS0=    0 NMtDT0=    0
 Symmetry not used in FoFCou.
 Two-electron integral symmetry not used.
 Closed shell SCF:
 Using DIIS extrapolation, IDIIS=  1040.
 Overlap will be assumed to be unity.
 NGot=   536870912 LenX=   536798895 LenY=   536796150
 Requested convergence on RMS density matrix=1.00D-08 within 128 cycles.
 Requested convergence on MAX density matrix=1.00D-06.
 Requested convergence on             energy=1.00D-06.
 No special actions if energy rises.

 Cycle   1  Pass 1  IDiag  1:
 E= 0.199407931510507E-01
 DIIS: error= 1.78D-03 at cycle   1 NSaved=   1.
 NSaved= 1 IEnMin= 1 EnMin= 0.199407931510507E-01 IErMin= 1 ErrMin= 1.78D-03
 ErrMax= 1.78D-03  0.00D+00 EMaxC= 1.00D-01 BMatC= 1.20D-04 BMatP= 1.20D-04
 IDIUse=3 WtCom= 9.82D-01 WtEn= 1.78D-02
 Coeff-Com:  0.100D+01
 Coeff-En:   0.100D+01
 Coeff:      0.100D+01
 GapD=    2.000 DampG=2.000 DampE=1.000 DampFc=2.0000 IDamp=-1.
 RMSDP=4.58D-04 MaxDP=5.92D-03              OVMax= 0.00D+00

 Cycle   2  Pass 1  IDiag  3:
 E= 0.195671999030651E-01 Delta-E=       -0.000373593248 Rises=F Damp=F
 DIIS: error= 6.84D-04 at cycle   2 NSaved=   2.
 NSaved= 2 IEnMin= 2 EnMin= 0.195671999030651E-01 IErMin= 2 ErrMin= 6.84D-04
 ErrMax= 6.84D-04  0.00D+00 EMaxC= 1.00D-01 BMatC= 1.55D-05 BMatP= 1.20D-04
 IDIUse=3 WtCom= 9.93D-01 WtEn= 6.84D-03
 Coeff-Com: -0.347D+00 0.135D+01
 Coeff-En:   0.000D+00 0.100D+01
 Coeff:     -0.345D+00 0.134D+01
 Gap=     0.269 Goal=   None    Shift=    0.000
 RMSDP=2.77D-04 MaxDP=3.94D-03 DE=-3.74D-04 OVMax= 5.60D-03

 Cycle   3  Pass 1  IDiag  3:
 E= 0.194850720954207E-01 Delta-E=       -0.000082127808 Rises=F Damp=F
[...]
 959431,0.04982935,0.01019823,-0.00566482,0.01154064,0.00032341,-0.0801
 2034,0.07788327,0.00212972,0.00904655,-0.01666232,-0.00038752,-0.00056
 027,-0.00160245,0.00035379,-0.00099347,-0.00056662,0.00075248,-0.00029
 425,0.00017760,0.00075724,0.00011086,0.00035541,-0.00012014,0.00060591
 ,-0.00016826,-0.00579986,-0.01491503,0.01617604,-0.01001415,0.09595853
 ,-0.01309438,0.01160986,-0.01158030,-0.00372181,0.06922923,-0.15707258
 ,0.00962762,0.00137911,-0.04271607,-0.00090184,-0.00136489,-0.00082489
 ,0.00011238,-0.00065602,-0.00052817,-0.00029005,0.00025626,0.00052844,
 -0.00060582,0.00040723,-0.00013959,-0.00057364,-0.00015553,-0.00002089
 ,0.00276810,0.00721683,-0.00002135,0.00241725,-0.08543344,0.21383235,-
 0.00036272,-0.00058134,0.00003317,0.00301027,-0.00395722,0.02025060,-0
 .04830564,0.01915245,-0.03889048,0.00274954,-0.01111056,0.01310791,-0.
 00070226,-0.00184405,-0.00036120,-0.00005369,0.00011296,0.00005652,-0.
 00042732,0.00083296,0.00019152,-0.00035667,0.00001884,0.00045379,0.000
 29739,-0.00030796,-0.00026493,-0.00055053,0.00197295,0.00179933,0.0508
 1259,0.00008063,-0.00021827,0.00052142,-0.00235184,0.00983066,-0.01879
 700,0.00850346,-0.08375946,0.06307697,-0.00074745,-0.03247371,0.031694
 61,-0.00169297,-0.00378092,-0.00052439,-0.00004838,0.00010101,-0.00009
 576,0.00049045,-0.00003098,-0.00017179,-0.00001521,0.00012072,-0.00007
 222,0.00029125,0.00009639,-0.00116333,0.00129505,-0.00185707,-0.001748
 51,-0.00910334,0.11418428,0.00054210,0.00027174,-0.00033326,0.00402192
 ,0.00031247,-0.04257135,-0.01661331,0.06391604,-0.18368692,0.00299266,
 0.01300858,-0.00087887,-0.00027671,-0.00111045,0.00048182,-0.00010034,
 -0.00001059,-0.00006474,0.00059691,-0.00048308,0.00021441,0.00028049,-
 0.00008184,-0.00004075,0.00002795,-0.00086664,-0.00155628,0.00098947,-
 0.00203007,-0.00200028,0.01626007,-0.07534096,0.23217045,0.00004045,0.
 00000695,-0.00008937,-0.00127660,-0.00168372,0.00018433,0.00679527,-0.
 00642286,-0.00706677,-0.06178593,0.02954369,0.05371798,0.00526136,-0.0
 0145531,-0.00307316,-0.00002437,0.00000418,0.00000588,-0.00002278,0.00
 007421,0.00001538,-0.00003013,0.00000704,0.00007283,0.00032834,-0.0001
 9609,-0.00037807,-0.00000873,-0.00003237,0.00014706,0.00081231,-0.0000
 4558,0.00002642,0.06591058,-0.00005890,0.00028792,0.00018376,-0.002585
 24,-0.00313626,0.00031099,0.00571763,-0.03641185,-0.02930583,0.0244274
 6,-0.06310657,-0.05424449,-0.00246349,0.00457371,0.01142723,-0.0000164
 3,0.00000889,0.00001719,-0.00000054,-0.00008070,-0.00006332,0.00004004
 ,-0.00007556,-0.00006241,0.00047314,-0.00034857,-0.00068777,-0.0000919
 1,-0.00012541,0.00021127,0.00053282,-0.00228419,0.00016963,-0.02929657
 ,0.09855774,-0.00007720,0.00010095,-0.00010092,0.00046294,0.00040340,0
 .00041891,-0.00006692,-0.01619360,-0.00502551,0.05066979,-0.05975755,-
 0.14698669,0.00566996,0.00169730,-0.04067524,0.00002181,-0.00001485,0.
 00001940,0.00002131,-0.00003991,0.00005302,0.00005365,-0.00005293,-0.0
 0000049,-0.00011923,0.00002966,0.00011478,-0.00000600,-0.00003811,-0.0
 0008044,0.00006858,0.00028246,0.00097496,-0.06058204,0.07409860,0.1941
 0392,-0.00028741,-0.00015550,-0.00015040,0.00065175,-0.00016752,-0.000
 62818,-0.02390535,-0.01997288,-0.00250037,-0.19832676,0.00477532,-0.01
 605681,-0.01661962,0.01007889,-0.01466995,0.00003298,0.00003547,0.0000
 2058,0.00009571,0.00011955,0.00000688,0.00004510,-0.00001682,0.0000611
 5,-0.00016974,0.00007874,0.00019028,0.00004439,-0.00008766,-0.00012302
 ,-0.00008488,-0.00054619,0.00059701,-0.01615577,0.00537550,0.00642413,
 0.25448906,-0.00010690,-0.00034049,0.00020440,-0.00080212,-0.00042825,
 -0.00101536,-0.03838963,-0.01754557,-0.00259556,0.01149439,-0.03414035
 ,-0.00090455,0.01600030,-0.00306647,0.00985038,0.00002056,-0.00008255,
 -0.00006488,0.00002535,-0.00022180,0.00000537,0.00090567,-0.00039704,-
 0.00039483,-0.00012441,-0.00008947,0.00003109,-0.00011545,-0.00010498,
 -0.00021349,-0.00136135,-0.00066082,0.00038229,0.01003883,0.00241489,-
 0.00220508,-0.00008023,0.05654949,-0.00005774,-0.00008000,-0.00039516,
 -0.00034196,-0.00047195,-0.00019392,-0.00392103,-0.00254370,0.00398826
 ,-0.01412388,-0.00021274,-0.03866722,-0.02699069,0.01048702,-0.0114551
 3,0.00002800,-0.00009673,0.00000685,0.00002008,-0.00000666,0.00011789,
 0.00040348,-0.00035981,0.00015686,-0.00002603,-0.00005909,-0.00003723,
 -0.00018310,-0.00026662,-0.00016900,0.00035731,0.00051510,0.00028401,0
 .01854809,-0.00369254,0.00036339,0.02821526,-0.00515015,0.04800600,-0.
 00013122,-0.00013816,0.00007334,-0.00000270,-0.00004275,-0.00013930,-0
 .00023467,0.00079990,-0.00093673,0.00459031,0.00280653,0.00063634,-0.0
 6335506,-0.06396416,-0.00489856,0.00000202,0.00005089,-0.00000386,0.00
 000937,0.00002576,-0.00002053,0.00004381,0.00011141,-0.00003544,0.0000
 1441,0.00000634,0.00001616,0.00006646,-0.00000054,-0.00000176,0.000159
 69,0.00019734,0.00006816,0.00029990,-0.00014500,0.00029187,0.00025512,
 0.00066100,-0.00046606,0.06835795,-0.00011693,0.00019122,-0.00002324,0
 .00021489,0.00009965,-0.00000773,0.00106904,-0.00072234,0.00150347,-0.
 00408901,-0.02961853,0.01440764,-0.06163111,-0.18491484,-0.01168749,0.
 00002879,-0.00004678,0.00002080,0.00003062,-0.00004926,-0.00001309,0.0
 0008623,-0.00006385,0.00001396,-0.00003069,0.00001314,0.00001451,-0.00
 003422,-0.00016058,-0.00000782,-0.00018130,-0.00033834,0.00005992,-0.0
 0028816,0.00020767,0.00067915,0.00064424,-0.00034412,0.00041177,0.0770
 0185,0.23183293,0.00001587,-0.00001983,-0.00005561,-0.00011471,-0.0000
 6184,0.00001635,-0.00077170,0.00181383,-0.00270551,0.00507199,0.026803
 27,-0.00517045,-0.00582430,-0.01447052,-0.03792381,-0.00000618,-0.0000
 0134,0.00002088,0.00000513,0.00001018,0.00000753,-0.00000258,0.0000065
 2,0.00003569,0.00000883,0.00000456,-0.00001414,-0.00001507,-0.00001263
 ,0.00003794,0.00030728,0.00064724,0.00010807,0.00018238,0.00082744,-0.
 00060910,-0.00025911,0.00056994,0.00008959,0.00807932,0.00588859,0.045
 82534,-0.00007862,-0.00012279,0.00007139,-0.00032979,-0.00030288,-0.00
 002433,-0.00138141,0.00010253,0.00012009,-0.01444347,0.01049830,-0.013
 66580,-0.20848582,0.01915492,-0.01639953,-0.00000525,0.00003085,-0.000
 03927,0.00000073,0.00002940,0.00002557,-0.00001783,0.00008036,-0.00001
 256,0.00010435,-0.00000541,-0.00002705,0.00007486,0.00026705,-0.000027
 83,-0.00009428,-0.00011569,-0.00013007,0.00038265,-0.00021209,-0.00050
 726,-0.00029497,0.00020184,-0.00050371,-0.01665543,-0.00799206,-0.0019
 0151,0.25400073,-0.00017791,0.00007068,-0.00011388,0.00023464,-0.00007
 406,-0.00010197,0.00094798,-0.00022122,-0.00012943,0.01898559,-0.00401
 579,0.01044552,0.01780845,-0.03877022,0.00114172,0.00004274,-0.0000458
 1,-0.00000968,0.00001314,-0.00002452,0.00002225,0.00004622,0.00001649,
 0.00002159,0.00001461,-0.00010365,0.00002456,0.00016471,-0.00022036,0.
 00001662,0.00000738,0.00007618,0.00013013,-0.00004270,0.00049894,-0.00
 006902,0.00041640,-0.00042402,0.00153959,-0.02188330,-0.00054223,-0.00
 153098,-0.02606570,0.04415925,0.00001750,-0.00003286,-0.00007679,-0.00
 010298,-0.00004235,-0.00003233,-0.00021224,-0.00013098,0.00016053,-0.0
 2647732,0.01077364,-0.01079400,-0.01407482,0.00141237,-0.03932643,0.00
 000618,0.00000303,0.00001642,-0.00001252,0.00000400,0.00000997,-0.0000
 0379,0.00001808,0.00000870,0.00003918,-0.00004493,-0.00000090,0.000098
 73,-0.00011549,0.00015062,-0.00017408,-0.00014610,-0.00004469,-0.00080
 753,0.00016766,-0.00050401,-0.00067101,0.00135693,-0.00189612,-0.00390
 959,-0.00105629,0.00445118,0.02549399,-0.00924625,0.04777211,-0.000208
 35,-0.00023127,0.00015217,0.00010942,-0.00020717,-0.00024234,-0.000003
 05,-0.00012344,0.00021449,0.00494153,-0.00139313,-0.00361928,-0.059825
 11,0.02517560,0.05312788,0.00001669,0.00008262,-0.00005160,-0.00000564
 ,0.00002674,-0.00001872,0.00002474,0.00016359,-0.00010819,0.00004089,-
 0.00004787,0.00005820,0.00051952,-0.00026687,0.00008980,-0.00003741,-0
 .00006723,0.00006186,0.00007966,0.00060479,-0.00057406,0.00029259,0.00
 004523,-0.00071188,0.00648107,-0.00376514,-0.00498673,-0.01488921,0.01
 221648,0.01980561,0.06272719,-0.00013832,0.00010418,-0.00030621,0.0002
 7791,-0.00118895,0.00110678,0.00024616,-0.00009117,0.00005682,-0.00271
 969,0.00576458,0.01485319,0.02464450,-0.06481162,-0.06064349,0.0000654
 5,-0.00009193,0.00002829,0.00001222,-0.00002211,0.00004729,0.00007910,
 0.00001488,0.00009452,-0.00005068,-0.00010295,-0.00003294,0.00008966,-
 0.00080461,-0.00069503,0.00006425,0.00007822,0.00002917,0.00064144,-0.
 00076758,0.00132345,-0.00015619,0.00039820,0.00008502,0.00470077,-0.01
 543127,-0.02049613,0.00513652,0.00224520,-0.00383383,-0.03195461,0.074
 84020,0.00014197,-0.00016111,-0.00024108,-0.00029859,0.00034812,0.0001
 0341,-0.00022882,-0.00013628,0.00004885,0.00452900,0.00144439,-0.03973
 666,0.05140073,-0.05857256,-0.16370894,-0.00001878,0.00001515,0.000089
 77,-0.00001426,0.00004431,0.00001827,-0.00004349,0.00005674,0.00008910
 ,0.00003347,-0.00000597,0.00001366,-0.00002123,0.00092991,0.00045642,-
 0.00009575,-0.00021490,-0.00015264,-0.00060781,0.00112516,-0.00196257,
 -0.00046210,-0.00014430,-0.00035570,0.00118269,-0.01016934,-0.00412308
 ,0.00699649,-0.00298550,0.00015123,-0.06339877,0.06833815,0.20926154,0
 .00948023,-0.00777255,-0.00529189,-0.00390136,0.01032325,0.01247038,0.
 08143764,0.00161645,0.00552116,0.00517502,-0.01634544,0.00461718,-0.00
 348659,0.00592221,-0.00346383,-0.00035896,0.00104339,0.00128580,-0.001
 49525,0.00191093,-0.00043497,-0.00216260,0.00037756,0.00077588,0.00064
 852,0.00494496,0.00324023,-0.00038593,-0.00046175,0.00373020,0.0015447
 3,0.00443220,-0.00917142,-0.00003245,-0.00314543,-0.00269851,-0.000024
 57,0.00374734,-0.00038919,0.00010730,-0.00169925,0.00048164,0.00328332
 ,-0.00295184,0.00111706,-0.00048426,-0.00157486,0.00156500,-0.12418814
 ,0.00063576,-0.00009244,-0.00061423,0.00640643,-0.00012753,-0.00016168
 ,-0.00037702,-0.02715847,0.00061382,-0.01110596,0.00001187,-0.00174775
 ,-0.00192238,-0.00081599,0.00061396,0.00007554,-0.00005301,0.00007019,
 -0.00007962,-0.00003521,-0.00005029,-0.00004400,-0.00012987,-0.0000178
 0,0.00079616,-0.00080505,-0.00043606,-0.00001058,-0.00015701,0.0000911
 8,0.00543223,0.00058138,0.00168185,-0.00032094,-0.00009367,0.00001654,
 -0.00024654,-0.00145925,-0.00007348,0.00000827,0.00007375,-0.00010197,
 -0.00012290,-0.00108455,0.00034107,0.00004658,-0.00007329,-0.00012083,
 0.00501162,0.42960971,0.00177639,-0.00165470,-0.00125295,0.00859094,0.
 00013945,0.00308484,0.01241601,0.00056953,-0.02708847,0.00105697,-0.00
 201961,0.00145676,0.00060521,0.00167388,-0.00000519,0.00010966,0.00013
 007,0.00023276,-0.00022970,0.00028829,-0.00018605,-0.00034838,0.000010
 76,0.00003040,0.00051016,0.00025655,0.00034063,0.00019460,-0.00021258,
 0.00031197,-0.01091942,0.00160658,-0.00325626,-0.00012398,-0.00059687,
 -0.00048686,0.00003115,0.00054965,0.00006071,0.00004866,-0.00024165,0.
 00000070,0.00065601,0.00033667,-0.00012986,-0.00014775,-0.00025413,0.0
 0012893,-0.06932906,0.00075215,0.41978261,-0.00305518,0.00224665,0.001
 34251,-0.00120641,-0.00189772,-0.00239445,-0.02722466,-0.00011041,-0.0
 0196467,-0.00318133,0.00308505,-0.00144979,-0.00006194,-0.00278468,0.0
 0118833,0.00025230,-0.00036849,-0.00040361,0.00049441,-0.00055863,0.00
 015026,0.00070681,-0.00011596,-0.00020860,-0.00016096,-0.00129112,-0.0
 0064461,0.00032339,0.00024863,-0.00102045,-0.00179422,-0.00067215,0.00
 120123,0.00016901,0.00081177,0.00089844,0.00009589,-0.00093175,0.00016
 818,0.00006636,0.00057383,-0.00020595,-0.00075985,0.00105170,-0.000334
 02,0.00041253,0.00061997,-0.00052975,0.05891439,-0.00051203,0.00814324
 ,0.04326214,0.00008722,0.00012966,0.00003230,0.00003819,0.00020615,-0.
 00007019,0.00054201,0.00158126,-0.00009196,0.00030256,-0.00023877,0.00
 021936,-0.00042068,0.00020067,0.00002698,-0.00003366,-0.00002299,-0.00
 001162,-0.00002318,-0.00003028,0.00001902,-0.00003444,-0.00005369,0.00
 000195,-0.00018966,-0.00011030,0.00001307,-0.00003497,-0.00010211,0.00
 005346,-0.00015589,-0.00011937,-0.00000554,0.00012954,-0.00005762,-0.0
 0003732,0.00002838,0.00011811,-0.00000008,0.00008658,-0.00006742,-0.00
 002902,0.00031967,-0.00007543,-0.00000847,0.00009039,-0.00004691,-0.00
 003438,-0.00151123,-0.00585843,-0.00019882,-0.00028543,0.00526822,-0.0
 0042366,0.00035756,0.00039308,-0.00034324,-0.00030308,-0.00033742,-0.0
 0384993,-0.00014527,0.00146271,-0.00054023,0.00050216,-0.00013248,0.00
 016652,-0.00025495,0.00035561,0.00000872,-0.00006061,-0.00010299,0.000
 08071,-0.00005077,-0.00003951,0.00009440,-0.00002379,-0.00004102,-0.00
 010956,-0.00017321,-0.00019330,-0.00006340,0.00008426,-0.00025326,0.00
 017461,-0.00006083,0.00001715,0.00011989,0.00007819,0.00001078,0.00001
 409,-0.00014167,-0.00000002,-0.00001156,0.00005951,-0.00005792,-0.0002
 2577,0.00008205,-0.00018407,-0.00001932,0.00003038,-0.00015129,0.00903
 479,-0.00007270,-0.00486236,0.00466450,-0.00000501,0.00601054,-0.00070
 564,0.00068290,0.00067105,-0.00227839,-0.00024389,-0.00098681,-0.02832
 833,0.01266541,0.00830005,-0.00287721,-0.00029794,0.00009658,0.0000502
 5,-0.00035241,0.00024804,-0.00006059,-0.00005384,-0.00011870,0.0001024
 4,-0.00011505,0.00005701,0.00014693,0.00000346,-0.00002641,-0.00014265
 ,-0.00030181,-0.00025057,-0.00003111,0.00007530,-0.00024172,-0.0017322
 2,0.00051879,-0.00030575,-0.00064197,-0.00034743,-0.00022644,-0.000027
 90,-0.00019339,0.00000156,-0.00004697,0.00003787,-0.00000138,-0.000222
 43,-0.00019852,0.00022727,-0.00000857,0.00007213,-0.00003926,-0.009251
 36,0.01796919,0.02122434,-0.02145843,-0.00509978,-0.00834134,0.0592452
 7,-0.00007978,0.00000030,0.00005589,-0.00019784,-0.00012808,-0.0001061
 3,0.00778261,-0.00138618,-0.00150217,-0.00038545,0.00039325,-0.0001325
 6,0.00032602,-0.00028202,-0.00030024,-0.00001690,0.00002945,0.00001413
 ,0.00001960,0.00000278,0.00000406,0.00002213,0.00003446,0.00000131,0.0
 0008705,-0.00001777,-0.00005783,0.00002690,0.00005466,-0.00001154,0.00
 062061,-0.00009464,0.00015957,-0.00050641,0.00002862,-0.00012724,-0.00
 004074,-0.00014789,-0.00002818,-0.00015416,-0.00002371,0.00012005,-0.0
 0029923,-0.00010364,0.00048829,-0.00002821,0.00003635,0.00010164,0.017
 45033,-0.13587391,-0.08814602,-0.00315309,-0.00019910,-0.00195924,-0.0
 2440155,0.15204557,-0.00013413,0.00012224,0.00008729,-0.00042080,-0.00
 011736,-0.00017077,0.00339145,-0.00081176,0.00100158,0.00033840,0.0001
 6791,-0.00008471,-0.00016946,-0.00023647,-0.00013432,-0.00002221,0.000
 00912,0.00000439,0.00001705,-0.00002532,0.00003554,0.00003804,0.000007
 01,0.00000459,0.00003839,-0.00006319,-0.00004424,0.00004139,-0.0000300
 5,-0.00003771,-0.00086443,0.00015313,0.00025775,-0.00016443,0.00002699
 ,0.00026338,-0.00000423,-0.00005728,0.00003263,0.00002026,0.00009703,0
 .00002033,0.00037998,0.00054928,-0.00024142,0.00009041,0.00005164,-0.0
 0004938,0.02118209,-0.08859684,-0.12303454,-0.00632440,-0.00223372,-0.
 00172124,-0.02104069,0.10614545,0.13642442,-0.00036729,0.00052035,0.00
 035679,-0.00194521,-0.00037672,-0.00007577,-0.02742255,-0.01607247,0.0
 0142766,-0.00287373,0.00077484,-0.00061668,0.00028196,-0.00006902,0.00
 013000,-0.00002232,-0.00004283,-0.00004991,0.00004091,-0.00009767,0.00
 001003,0.00011367,-0.00004995,-0.00004050,-0.00056336,0.00022479,0.000
 31227,-0.00004822,-0.00001888,-0.00016740,-0.00192073,-0.00030360,-0.0
 0089554,-0.00007366,0.00020976,0.00017252,-0.00006298,-0.00068205,-0.0
 0002338,0.00001298,0.00010060,-0.00003427,-0.00014473,0.00009823,-0.00
 004702,-0.00002110,0.00004261,-0.00008158,-0.00894430,-0.01867148,0.00
 965258,-0.02109424,0.00766781,-0.00518105,0.00451150,0.00292853,-0.000
 57046,0.05657627,-0.00004996,-0.00033695,-0.00009547,0.00009653,0.0000
 2864,0.00039931,-0.00949663,-0.00280205,0.00005887,0.00032690,-0.00005
 934,-0.00001238,0.00003430,-0.00005652,0.00000038,0.00007072,0.0000563
 8,0.00000511,0.00005504,0.00009226,-0.00002894,0.00000017,0.00003823,0
 .00000127,0.00022822,0.00024830,-0.00012232,0.00001120,0.00007265,-0.0
 0002945,-0.00024466,0.00042133,-0.00028150,-0.00005895,-0.00005754,-0.
 00000540,-0.00003000,0.00010433,0.00001476,-0.00000509,0.00002809,0.00
 001241,-0.00008569,-0.00005909,-0.00000361,-0.00003659,0.00000100,0.00
 001057,-0.01814095,-0.20614743,0.04695864,0.00493909,-0.00177136,0.001
 55987,-0.00151155,-0.02020777,0.00103471,0.02553372,0.23653038,-0.0001
 4834,0.00005345,-0.00009722,0.00045964,-0.00002543,-0.00017312,-0.0009
 4377,-0.00063930,0.00150205,-0.00059474,0.00005924,-0.00011943,0.00011
 491,0.00004370,0.00000491,0.00002983,-0.00003529,-0.00001568,-0.000011
 98,-0.00003529,0.00006257,0.00001161,0.00001250,0.00000582,0.00057957,
 -0.00033036,-0.00011016,0.00011860,0.00005073,-0.00005754,-0.00121036,
 -0.00019197,0.00011876,-0.00003624,0.00000479,0.00008068,-0.00002124,-
 0.00014422,0.00002511,0.00000592,0.00000749,-0.00000914,-0.00000812,0.
 00002232,-0.00002172,-0.00000509,0.00003683,0.00000137,0.00962487,0.04
 714168,-0.05415031,-0.00431541,0.00190441,0.00021225,-0.00116785,-0.01
 441951,0.00634464,-0.00543160,-0.05639677,0.05365328,-0.00043822,0.000
 40966,0.00044473,-0.00230067,0.00074716,-0.00054704,-0.02305077,0.0040
 0188,-0.01862523,-0.00154722,0.00041364,-0.00080423,-0.00037585,-0.000
 60912,0.00040852,-0.00000388,-0.00003274,-0.00006131,0.00009005,-0.000
 10333,-0.00000153,0.00011109,-0.00003445,-0.00006838,-0.00026258,0.000
 19291,-0.00019394,-0.00058138,0.00011096,0.00007785,-0.00296397,-0.000
 09962,-0.00017300,-0.00002711,0.00017012,0.00010273,-0.00004253,-0.000
 35352,-0.00000342,-0.00004065,0.00003988,-0.00002893,-0.00004350,-0.00
 072821,0.00002130,-0.00016307,-0.00009831,-0.00000915,-0.00587461,-0.0
 0296835,0.01608261,-0.02469987,-0.00150347,0.00475077,0.00375716,-0.00
 000045,0.00417773,0.00396702,-0.00163581,0.00294977,0.05449042,-0.0001
 2368,-0.00011720,-0.00005186,0.00085357,-0.00047416,0.00012713,0.00252
 272,0.00111802,0.00173175,-0.00040428,0.00018817,-0.00029575,-0.000064
 81,-0.00017712,0.00013021,0.00003919,-0.00000485,-0.00002609,0.0000077
 3,0.00001305,0.00001989,0.00000221,0.00005443,-0.00000382,0.00053232,-
 0.00030237,0.00002373,0.00024985,0.00023136,-0.00015530,0.00010004,0.0
 0012784,0.00008949,-0.00009618,-0.00003274,-0.00009048,-0.00005231,-0.
 00013183,-0.00001138,-0.00012339,-0.00012310,0.00002032,-0.00049703,-0
 .00130216,0.00009610,-0.00033043,-0.00005037,0.00013104,-0.00317657,-0
 .05031144,0.04005226,-0.00089552,0.00124958,0.00049711,0.00109206,0.00
 583937,-0.01619249,-0.00171661,-0.00612356,0.02288107,0.00208111,0.050
 32902,-0.00006353,-0.00002643,-0.00033959,-0.00030800,0.00041800,0.000
 17374,-0.01196967,0.00181439,-0.00678249,-0.00004063,-0.00033839,-0.00
 015072,-0.00038144,-0.00061526,-0.00055018,0.00005963,-0.00002283,0.00
 005815,-0.00000436,-0.00001591,0.00004632,0.00000661,-0.00000478,0.000
 04222,0.00000621,-0.00011720,0.00024986,0.00032012,-0.00005925,0.00018
 437,-0.00027987,0.00003031,-0.00004125,-0.00009077,0.00000430,0.000028
 63,-0.00001418,0.00008125,0.00003816,0.00000064,0.00004288,0.00005513,
 -0.00027072,-0.00014561,0.00053155,0.00028339,0.00018034,0.00011892,0.
 01613284,0.04067119,-0.21097727,0.00203930,0.00045557,-0.00038537,0.00
 192102,-0.00029978,-0.01895825,0.00115327,0.00692001,-0.00725738,-0.00
 849987,-0.04897292,0.24391572||-0.00000001,-0.00000009,0.00000003,-0.0
 0000002,0.00000004,0.00000004,-0.00000002,0.00000001,-0.00000004,0.,-0
 .00000003,0.,-0.00000006,0.00000007,0.,0.,0.,0.,0.,0.00000002,0.,0.000
 00002,-0.00000002,-0.00000002,0.,0.,0.00000002,-0.00000001,-0.00000002
 ,0.,0.,0.,0.,-0.00000001,0.,-0.00000001,0.,0.00000001,0.,0.,-0.0000000
 2,0.00000001,0.00000001,0.,0.,0.00000002,0.00000004,0.,0.00000004,-0.0
 0000003,0.00000001,0.00000005,-0.00000001,0.,-0.00000002,0.,0.,0.00000
 002,0.00000003,-0.00000001,0.,-0.00000001,0.|||@


 Children are likely to live up to what you believe of them.
 -- Lady Bird Johnson
 Job cpu time:       0 days  0 hours  0 minutes  4.0 seconds.
 Elapsed time:       0 days  0 hours  0 minutes  3.3 seconds.
 File lengths (MBytes):  RWF=     23 Int=      0 D2E=      0 Chk=      2 Scr=      1
 Normal termination of Gaussian 16 at Sat Dec 13 13:38:32 2025.
