 Entering Gaussian System, Link 0=g16.exe
 Input=Et2NH_irc.gjf
 Output=Et2NH_irc.log
 Initial command:
 D:\G16W\l1.exe ".\Gau-3020.inp" "Et2NH_irc.log" /scrdir=".\"
 Entering Link 1 = D:\G16W\l1.exe PID=     14396.
  
 Copyright (c) 1988,1990,1992,1993,1995,1998,2003,2009,2016,
            Gaussian, Inc.  All Rights Reserved.
  
 This is part of the Gaussian(R) 16 program.  It is based on
 the Gaussian(R) 09 system (copyright 2009, Gaussian, Inc.),
 the Gaussian(R) 03 system (copyright 2003, Gaussian, Inc.),
 the Gaussian(R) 98 system (copyright 1998, Gaussian, Inc.),
 the Gaussian(R) 94 system (copyright 1995, Gaussian, Inc.),
 the Gaussian 92(TM) system (copyright 1992, Gaussian, Inc.),
 the Gaussian 90(TM) system (copyright 1990, Gaussian, Inc.),
 the Gaussian 88(TM) system (copyright 1988, Gaussian, Inc.),
 the Gaussian 86(TM) system (copyright 1986, Carnegie Mellon
 University), and the Gaussian 82(TM) system (copyright 1983,
 Carnegie Mellon University). Gaussian is a federally registered
 trademark of Gaussian, Inc.
  
 This software contains proprietary and confidential information,
 including trade secrets, belonging to Gaussian, Inc.
  
 This software is provided under written license and may be
 used, copied, transmitted, or stored only in accord with that
 written license.
  
 The following legend is applicable only to US Government
 contracts under FAR:
  
                    RESTRICTED RIGHTS LEGEND
  
 Use, reproduction and disclosure by the US Government is
 subject to restrictions as set forth in subparagraphs (a)
 and (c) of the Commercial Computer Software - Restricted
 Rights clause in FAR 52.227-19.
  
 Gaussian, Inc.
 340 Quinnipiac St., Bldg. 40, Wallingford CT 06492
  
  
 ---------------------------------------------------------------
 Warning -- This program may not be used in any manner that
 competes with the business of Gaussian, Inc. or will provide
 assistance to any competitor of Gaussian, Inc.  The licensee
 of this program is prohibited from giving any competitor of
 Gaussian, Inc. access to this program.  By using this program,
 the user acknowledges that Gaussian, Inc. is engaged in the
 business of creating and licensing software in the field of
 computational chemistry and represents and warrants to the
 licensee that it is not a competitor of Gaussian, Inc. and that
 it will not use this program in any manner prohibited above.
 ---------------------------------------------------------------
  

 Cite this work as:
 Gaussian 16, Revision A.03,
 M. J. Frisch, G. W. Trucks, H. B. Schlegel, G. E. Scuseria, 
 M. A. Robb, J. R. Cheeseman, G. Scalmani, V. Barone, 
 G. A. Petersson, H. Nakatsuji, X. Li, M. Caricato, A. V. Marenich, 
 J. Bloino, B. G. Janesko, R. Gomperts, B. Mennucci, H. P. Hratchian, 
 J. V. Ortiz, A. F. Izmaylov, J. L. Sonnenberg, D. Williams-Young, 
 F. Ding, F. Lipparini, F. Egidi, J. Goings, B. Peng, A. Petrone, 
 T. Henderson, D. Ranasinghe, V. G. Zakrzewski, J. Gao, N. Rega, 
 G. Zheng, W. Liang, M. Hada, M. Ehara, K. Toyota, R. Fukuda, 
 J. Hasegawa, M. Ishida, T. Nakajima, Y. Honda, O. Kitao, H. Nakai, 
 T. Vreven, K. Throssell, J. A. Montgomery, Jr., J. E. Peralta, 
 F. Ogliaro, M. J. Bearpark, J. J. Heyd, E. N. Brothers, K. N. Kudin, 
 V. N. Staroverov, T. A. Keith, R. Kobayashi, J. Normand, 
 K. Raghavachari, A. P. Rendell, J. C. Burant, S. S. Iyengar, 
 J. Tomasi, M. Cossi, J. M. Millam, M. Klene, C. Adamo, R. Cammi, 
 J. W. Ochterski, R. L. Martin, K. Morokuma, O. Farkas, 
 J. B. Foresman, and D. J. Fox, Gaussian, Inc., Wallingford CT, 2016.
 
 ******************************************
 Gaussian 16:  EM64W-G16RevA.03 17-Dec-2016
                13-Dec-2025 
 ******************************************
 %nproc=6
 Will use up to    6 processors via shared memory.
 %mem=4GB
 ------------------------------------------
 #PM7 IRC(CalcFC, MaxPoints=20, StepSize=5)
 ------------------------------------------
 1/10=4,18=10,26=1,38=1,39=5,42=20,44=3,172=1/1,23;
 2/12=2,17=6,18=5,29=1,40=1/2;
 3/5=2,25=1,41=4200000,71=2,140=1/1,2,3;
 4/35=1/1;
 5/5=2,35=1,38=5/2;
 8/6=4,10=90,11=11/1;
 11/6=1,8=1,9=11,15=111,16=1/1,2,10;
 10/6=1,13=1/2;
 6/7=2,8=2,9=2,10=2,28=1/1;
 7/10=1,18=20,25=1/1,2,3,16;
 1/10=4,18=10,26=1,39=5,42=20,44=3/23(2);
 2/29=1/2;
 99/5=20/99;
 2/29=1/2;
 3/5=2,25=1,41=4200000,71=2,135=20,140=1/1,2,3;
 4/5=5,16=3,35=1/1;
 5/5=2,35=1,38=5/2;
 8/6=4,10=90,11=11/1;
 11/6=1,8=1,9=11,15=111,16=1/1,2,10;
 10/6=1,13=1/2;
 7/10=1,18=20,25=1/1,2,3,16;
 1/18=10,26=1,39=5,42=20,44=3/23(-8);
 2/29=1/2;
 6/7=2,8=2,9=2,10=2,19=2,28=1/1;
 99/5=20,9=1/99;
 Leave Link    1 at Sat Dec 13 15:04:31 2025, MaxMem=   536870912 cpu:               0.0 elap:               0.1
 (Enter D:\G16W\l101.exe)
 ----------------
 title: Et2NH_IRC
 ----------------
 Symbolic Z-matrix:
 Charge =  0 Multiplicity = 1
 C                     4.21041  -1.44311  -0.15341 
 C                     2.7875   -1.00959  -0.49364 
 N                     2.16871  -0.16752   0.57458 
 C                     2.71832   1.22636   0.62818 
 C                     2.34692   2.05627  -0.59673 
 H                     4.61484  -2.10086  -0.93672 
 H                     4.26344  -2.00656   0.78591 
 H                     4.89958  -0.59431  -0.07343 
 H                     2.13725  -1.90676  -0.63434 
 H                     2.76525  -0.4569   -1.45945 
 H                     2.30939  -0.61987   1.4912 
 H                     2.30966   1.71146   1.54662 
 H                     3.82436   1.20033   0.74785 
 H                     2.76833   3.06869  -0.51815 
 H                     1.25909   2.17883  -0.70644 
 H                     2.72641   1.62751  -1.53136 
 C                     0.29963  -0.13602   0.31756 
 I                    -2.33752  -0.0884   -0.03523 
 H                     0.13201   0.6476    1.04805 
 H                     0.16535  -1.17207   0.60836 
 H                     0.35613   0.11718  -0.73485 
 
 ITRead=  0  0  0  0  0  0  0  0  0  0  0  0  0  0  0  0  0  0  0  0
 ITRead=  0
 MicOpt= -1 -1 -1 -1 -1 -1 -1 -1 -1 -1 -1 -1 -1 -1 -1 -1 -1 -1 -1 -1
 MicOpt= -1
 NAtoms=     21 NQM=       21 NQMF=       0 NMMI=      0 NMMIF=      0
                NMic=       0 NMicF=      0.
                    Isotopes and Nuclear Properties:
 (Nuclear quadrupole moments (NQMom) in fm**2, nuclear magnetic moments (NMagM)
  in nuclear magnetons)

  Atom         1           2           3           4           5           6           7           8           9          10
 IAtWgt=          12          12          14          12          12           1           1           1           1           1
 AtmWgt=  12.0000000  12.0000000  14.0030740  12.0000000  12.0000000   1.0078250   1.0078250   1.0078250   1.0078250   1.0078250
 NucSpn=           0           0           2           0           0           1           1           1           1           1
 AtZEff=   0.0000000   0.0000000   0.0000000   0.0000000   0.0000000   0.0000000   0.0000000   0.0000000   0.0000000   0.0000000
 NQMom=    0.0000000   0.0000000   2.0440000   0.0000000   0.0000000   0.0000000   0.0000000   0.0000000   0.0000000   0.0000000
 NMagM=    0.0000000   0.0000000   0.4037610   0.0000000   0.0000000   2.7928460   2.7928460   2.7928460   2.7928460   2.7928460
 AtZNuc=   6.0000000   6.0000000   7.0000000   6.0000000   6.0000000   1.0000000   1.0000000   1.0000000   1.0000000   1.0000000

  Atom        11          12          13          14          15          16          17          18          19          20
 IAtWgt=           1           1           1           1           1           1          12         127           1           1
 AtmWgt=   1.0078250   1.0078250   1.0078250   1.0078250   1.0078250   1.0078250  12.0000000 126.9004000   1.0078250   1.0078250
 NucSpn=           1           1           1           1           1           1           0           5           1           1
 AtZEff=   0.0000000   0.0000000   0.0000000   0.0000000   0.0000000   0.0000000   0.0000000   0.0000000   0.0000000   0.0000000
 NQMom=    0.0000000   0.0000000   0.0000000   0.0000000   0.0000000   0.0000000   0.0000000 -71.0000000   0.0000000   0.0000000
 NMagM=    2.7928460   2.7928460   2.7928460   2.7928460   2.7928460   2.7928460   0.0000000   2.8132800   2.7928460   2.7928460
 AtZNuc=   1.0000000   1.0000000   1.0000000   1.0000000   1.0000000   1.0000000   6.0000000  53.0000000   1.0000000   1.0000000

  Atom        21
 IAtWgt=           1
 AtmWgt=   1.0078250
 NucSpn=           1
 AtZEff=   0.0000000
 NQMom=    0.0000000
 NMagM=    2.7928460
 AtZNuc=   1.0000000
 Leave Link  101 at Sat Dec 13 15:04:31 2025, MaxMem=   536870912 cpu:               0.0 elap:               0.2
 (Enter D:\G16W\l123.exe)
 IRC-IRC-IRC-IRC-IRC-IRC-IRC-IRC-IRC-IRC-IRC-IRC-IRC-IRC-IRC-IRC-IRC-IRC
 ------------------------------------------------------------------------
 INPUT DATA FOR L123
 ------------------------------------------------------------------------
 GENERAL PARAMETERS:
 Follow reaction path in both directions.
 Maximum points per path      =  20
 Step size                    =   0.050 bohr
 Integration scheme           = HPC                                 
    Redo corrector integration= Yes                                 
    DWI Weight Power          =  2
    DWI will use Hessian update vectors when possible.
    Max correction cycles     =  20
 Initial Hessian              = CalcFC
 Hessian evaluation           = All updating
 Hessian updating method      = Bofill                              
 ------------------------------------------------------------------------
 IRC-IRC-IRC-IRC-IRC-IRC-IRC-IRC-IRC-IRC-IRC-IRC-IRC-IRC-IRC-IRC-IRC-IRC
 Leave Link  123 at Sat Dec 13 15:04:31 2025, MaxMem=   536870912 cpu:               0.0 elap:               0.1
 (Enter D:\G16W\l202.exe)
                          Input orientation:                          
 ---------------------------------------------------------------------
 Center     Atomic      Atomic             Coordinates (Angstroms)
 Number     Number       Type             X           Y           Z
 ---------------------------------------------------------------------
      1          6           0        4.210406   -1.443105   -0.153408
      2          6           0        2.787501   -1.009590   -0.493641
      3          7           0        2.168708   -0.167515    0.574576
      4          6           0        2.718323    1.226358    0.628183
      5          6           0        2.346918    2.056268   -0.596729
      6          1           0        4.614839   -2.100863   -0.936717
      7          1           0        4.263444   -2.006564    0.785913
      8          1           0        4.899579   -0.594305   -0.073426
      9          1           0        2.137254   -1.906762   -0.634344
     10          1           0        2.765247   -0.456903   -1.459446
     11          1           0        2.309389   -0.619873    1.491197
     12          1           0        2.309657    1.711455    1.546622
     13          1           0        3.824359    1.200332    0.747850
     14          1           0        2.768333    3.068693   -0.518148
     15          1           0        1.259093    2.178829   -0.706436
     16          1           0        2.726406    1.627507   -1.531357
     17          6           0        0.299631   -0.136015    0.317561
     18         53           0       -2.337523   -0.088399   -0.035228
     19          1           0        0.132013    0.647601    1.048053
     20          1           0        0.165354   -1.172066    0.608364
     21          1           0        0.356125    0.117181   -0.734850
 ---------------------------------------------------------------------
                    Distance matrix (angstroms):
                    1          2          3          4          5
     1  C    0.000000
     2  C    1.525894   0.000000
     3  N    2.515079   1.494350   0.000000
     4  C    3.156458   2.502546   1.499277   0.000000
     5  C    3.989327   3.099069   2.519707   1.525484   0.000000
     6  H    1.099902   2.174019   3.464881   4.137159   4.747715
     7  H    1.096642   2.193085   2.795476   3.586651   4.700146
     8  H    1.096275   2.193152   2.838963   2.926593   3.716916
     9  H    2.178127   1.116932   2.118362   3.427544   3.968751
    10  H    2.183304   1.112986   2.139357   2.682119   2.689853
    11  H    2.645052   2.078474   1.031801   2.078603   3.394492
    12  H    4.056377   3.434399   2.120205   1.116180   2.171230
    13  H    2.819407   2.738636   2.154579   1.112795   2.173327
    14  H    4.750677   4.078402   3.467944   2.170432   1.099441
    15  H    4.704731   3.542221   2.823778   2.194940   1.100191
    16  H    3.678268   2.834584   2.822780   2.196497   1.096073
    17  C    4.150236   2.758746   1.886928   2.793317   3.135828
    18  I    6.687643   5.227294   4.547993   5.265955   5.182554
    19  H    4.737916   3.489229   2.244264   2.683328   3.097653
    20  H    4.125070   2.848942   2.241359   3.502925   4.078432
    21  H    4.198577   2.690610   2.254131   2.944166   2.782516
                    6          7          8          9         10
     6  H    0.000000
     7  H    1.760632   0.000000
     8  H    1.759564   1.771329   0.000000
     9  H    2.503504   2.558862   3.109278   0.000000
    10  H    2.529198   3.112504   2.548589   1.782487   0.000000
    11  H    3.661038   2.497733   3.026183   2.490710   2.990094
    12  H    5.100451   4.268446   3.827373   4.228218   3.734405
    13  H    3.789527   3.237040   2.247513   3.796158   2.956400
    14  H    5.505370   5.449235   4.261167   5.016664   3.649093
    15  H    5.443328   5.363837   4.619969   4.179524   3.127716
    16  H    4.221436   4.575882   3.432884   3.693615   2.086012
    17  C    4.904576   4.407961   4.639226   2.723697   3.056139
    18  I    7.293698   6.922889   7.254864   4.867136   5.310598
    19  H    5.620418   4.917523   5.052695   3.657352   3.800184
    20  H    4.800818   4.185959   4.817835   2.443868   3.398049
    21  H    4.805946   4.700016   4.646146   2.697938   2.580403
                   11         12         13         14         15
    11  H    0.000000
    12  H    2.331987   0.000000
    13  H    2.482105   1.787066   0.000000
    14  H    4.225354   2.513116   2.491729   0.000000
    15  H    3.710181   2.529505   3.106927   1.762134   0.000000
    16  H    3.789519   3.107198   2.565690   1.762205   1.771287
    17  C    2.377113   2.993984   3.794032   4.130745   2.706961
    18  I    4.919983   5.228576   6.343724   6.022475   4.304241
    19  H    2.558092   2.474367   3.745538   3.907026   2.587122
    20  H    2.383526   3.713900   4.363032   5.101820   3.762109
    21  H    3.051848   3.400458   3.924317   3.818001   2.250900
                   16         17         18         19         20
    16  H    0.000000
    17  C    3.523882   0.000000
    18  I    5.552127   2.661073   0.000000
    19  H    3.787406   1.084329   2.795318   0.000000
    20  H    4.356031   1.084435   2.802309   1.872332   0.000000
    21  H    2.921257   1.083914   2.790605   1.873583   1.871570
                   21
    21  H    0.000000
 Symmetry turned off by external request.
 Stoichiometry    C5H14IN
 Framework group  C1[X(C5H14IN)]
 Deg. of freedom    57
 Full point group                 C1      NOp   1
 Rotational constants (GHZ):           2.8643347           0.3770414           0.3481584
 Leave Link  202 at Sat Dec 13 15:04:31 2025, MaxMem=   536870912 cpu:               0.0 elap:               0.0
 (Enter D:\G16W\l301.exe)
 Standard basis: VSTO-6G (5D, 7F)
 Ernie: Thresh=  0.10000D-02 Tol=  0.10000D-05 Strict=F.
 EHB=         0.000000000 Number of Hydrogen Bonds=     0
  NNHCO=     0 NNPyr=     0 NCTC=     0               EPep=         0.000000000
    EC=       166.424944178  ECS=         3.111173137   EG=         0.587307167
   EHC=         0.000548993  EAt=       -41.819221151  AtH=         2.744811147
 EPDDG=         0.000000000  ECC=       170.123973475 EAtT=        44.564032299
  EHyb=         0.000000000
    47 basis functions,   288 primitive gaussians,    48 cartesian basis functions
    23 alpha electrons       23 beta electrons
       nuclear repulsion energy       214.6880057740 Hartrees.
 IExCor=    0 DFT=F Ex=HF Corr=None ExCW=0 ScaHFX=  1.000000
 ScaDFX=  1.000000  1.000000  1.000000  1.000000 ScalE2=  1.000000  1.000000
 IRadAn=      5 IRanWt=     -1 IRanGd=            0 ICorTp=0 IEmpDi=251
 Integral buffers will be    131072 words long.
 Regular integral format.
 Two-electron integral symmetry is turned off.
 R6Disp:  PM7 Dispersion energy=       -0.0040829549 Hartrees.
 Nuclear repulsion after empirical dispersion term =      214.6839228191 Hartrees.
 Leave Link  301 at Sat Dec 13 15:04:31 2025, MaxMem=   536870912 cpu:               0.0 elap:               0.1
 (Enter D:\G16W\l302.exe)
 Do NDO integrals.
 NPDir=0 NMtPBC=     1 NCelOv=     1 NCel=       1 NClECP=     1 NCelD=      1
         NCelK=      1 NCelE2=     1 NClLst=     1 CellRange=     0.0.
 One-electron integrals computed using PRISM.
 NBasis=    47 RedAO= F EigKep=  0.00D+00  NBF=    47
 NBsUse=    47 1.00D-04 EigRej=  0.00D+00 NBFU=    47
 Leave Link  302 at Sat Dec 13 15:04:32 2025, MaxMem=   536870912 cpu:               1.0 elap:               0.2
 (Enter D:\G16W\l303.exe)
 DipDrv:  MaxL=1.
 Leave Link  303 at Sat Dec 13 15:04:32 2025, MaxMem=   536870912 cpu:               0.0 elap:               0.1
 (Enter D:\G16W\l401.exe)
 Nonelectrostatic core Hamiltonian diagonalized for initial guess.
 JPrj=0 DoOrth=F DoCkMO=F.
 Leave Link  401 at Sat Dec 13 15:04:32 2025, MaxMem=   536870912 cpu:               0.0 elap:               0.1
 (Enter D:\G16W\l502.exe)
 Keep J ints in memory in canonical form, NReq=1854372.
 FoFCou: FMM=F IPFlag=           0 FMFlag=           0 FMFlg1=           0
         NFxFlg=           0 DoJE=F BraDBF=F KetDBF=F FulRan=T
         wScrn=  0.000000 ICntrl=       600 IOpCl=  2 I1Cent=           0 NGrid=           0
         NMat0=    1 NMatS0=    119 NMatT0=    0 NMatD0=    1 NMtDS0=    0 NMtDT0=    0
 Symmetry not used in FoFCou.
 Two-electron integral symmetry not used.
 Closed shell SCF:
 Using DIIS extrapolation, IDIIS=  1040.
 Overlap will be assumed to be unity.
 NGot=   536870912 LenX=   536798937 LenY=   536796192
 Requested convergence on RMS density matrix=1.00D-08 within 128 cycles.
 Requested convergence on MAX density matrix=1.00D-06.
 Requested convergence on             energy=1.00D-06.
 No special actions if energy rises.

 Cycle   1  Pass 1  IDiag  1:
 E= 0.743784301136429    
 DIIS: error= 4.53D-02 at cycle   1 NSaved=   1.
 NSaved= 1 IEnMin= 1 EnMin= 0.743784301136429     IErMin= 1 ErrMin= 4.53D-02
 ErrMax= 4.53D-02  0.00D+00 EMaxC= 1.00D-01 BMatC= 1.27D-01 BMatP= 1.27D-01
 IDIUse=3 WtCom= 5.47D-01 WtEn= 4.53D-01
 Coeff-Com:  0.100D+01
 Coeff-En:   0.100D+01
 Coeff:      0.100D+01
 GapD=    2.000 DampG=2.000 DampE=0.500 DampFc=1.0000 IDamp=-1.
 RMSDP=1.65D-02 MaxDP=1.56D-01              OVMax= 0.00D+00

 Cycle   2  Pass 1  IDiag  1:
 E= 0.189637020183966     Delta-E=       -0.554147280952 Rises=F Damp=F
 DIIS: error= 2.17D-02 at cycle   2 NSaved=   2.
 NSaved= 2 IEnMin= 2 EnMin= 0.189637020183966     IErMin= 2 ErrMin= 2.17D-02
 ErrMax= 2.17D-02  0.00D+00 EMaxC= 1.00D-01 BMatC= 2.74D-02 BMatP= 1.27D-01
 IDIUse=3 WtCom= 7.83D-01 WtEn= 2.17D-01
 Coeff-Com: -0.584D+00 0.158D+01
 Coeff-En:   0.000D+00 0.100D+01
 Coeff:     -0.457D+00 0.146D+01
 RMSDP=1.12D-02 MaxDP=1.40D-01 DE=-5.54D-01 OVMax= 0.00D+00

 Cycle   3  Pass 1  IDiag  1:
 E= 0.364287766406619E-01 Delta-E=       -0.153208243543 Rises=F Damp=F
 DIIS: error= 7.03D-03 at cycle   3 NSaved=   3.
 NSaved= 3 IEnMin= 3 EnMin= 0.364287766406619E-01 IErMin= 3 ErrMin= 7.03D-03
 ErrMax= 7.03D-03  0.00D+00 EMaxC= 1.00D-01 BMatC= 2.79D-03 BMatP= 2.74D-02
 IDIUse=3 WtCom= 9.30D-01 WtEn= 7.03D-02
 Coeff-Com:  0.941D-01-0.583D+00 0.149D+01
 Coeff-En:   0.000D+00 0.000D+00 0.100D+01
 Coeff:      0.875D-01-0.542D+00 0.145D+01
 RMSDP=4.36D-03 MaxDP=4.90D-02 DE=-1.53D-01 OVMax= 0.00D+00

 Cycle   4  Pass 1  IDiag  3:
 E= 0.201444300684841E-01 Delta-E=       -0.016284346572 Rises=F Damp=F
 DIIS: error= 1.34D-03 at cycle   4 NSaved=   4.
 NSaved= 4 IEnMin= 4 EnMin= 0.201444300684841E-01 IErMin= 4 ErrMin= 1.34D-03
 ErrMax= 1.34D-03  0.00D+00 EMaxC= 1.00D-01 BMatC= 1.20D-04 BMatP= 2.79D-03
 IDIUse=3 WtCom= 9.87D-01 WtEn= 1.34D-02
 Coeff-Com:  0.380D-01-0.942D-01-0.571D-01 0.111D+01
 Coeff-En:   0.000D+00 0.000D+00 0.000D+00 0.100D+01
 Coeff:      0.375D-01-0.930D-01-0.563D-01 0.111D+01
 Gap=     0.271 Goal=   None    Shift=    0.000
 RMSDP=8.05D-04 MaxDP=9.83D-03 DE=-1.63D-02 OVMax= 1.62D-02

 Cycle   5  Pass 1  IDiag  3:
 E= 0.195364298238303E-01 Delta-E=       -0.000608000245 Rises=F Damp=F
 DIIS: error= 3.83D-04 at cycle   5 NSaved=   5.
 NSaved= 5 IEnMin= 5 EnMin= 0.195364298238303E-01 IErMin= 5 ErrMin= 3.83D-04
 ErrMax= 3.83D-04  0.00D+00 EMaxC= 1.00D-01 BMatC= 9.50D-06 BMatP= 1.20D-04
 IDIUse=3 WtCom= 9.96D-01 WtEn= 3.83D-03
 Coeff-Com: -0.147D-01 0.490D-01-0.348D-01-0.448D+00 0.145D+01
 Coeff-En:   0.000D+00 0.000D+00 0.000D+00 0.000D+00 0.100D+01
 Coeff:     -0.146D-01 0.489D-01-0.346D-01-0.446D+00 0.145D+01
 Gap=     0.270 Goal=   None    Shift=    0.000
 RMSDP=2.69D-04 MaxDP=3.15D-03 DE=-6.08D-04 OVMax= 4.20D-03

 Cycle   6  Pass 1  IDiag  3:
 E= 0.194785778849109E-01 Delta-E=       -0.000057851939 Rises=F Damp=F
 DIIS: error= 8.28D-05 at cycle   6 NSaved=   6.
 NSaved= 6 IEnMin= 6 EnMin= 0.194785778849109E-01 IErMin= 6 ErrMin= 8.28D-05
 ErrMax= 8.28D-05  0.00D+00 EMaxC= 1.00D-01 BMatC= 3.39D-07 BMatP= 9.50D-06
 IDIUse=1 WtCom= 1.00D+00 WtEn= 0.00D+00
 Coeff-Com:  0.171D-02-0.734D-02 0.710D-02 0.957D-01-0.459D+00 0.136D+01
 Coeff:      0.171D-02-0.734D-02 0.710D-02 0.957D-01-0.459D+00 0.136D+01
 Gap=     0.270 Goal=   None    Shift=    0.000
 RMSDP=5.13D-05 MaxDP=6.02D-04 DE=-5.79D-05 OVMax= 7.56D-04

 Cycle   7  Pass 1  IDiag  3:
 E= 0.194765790986935E-01 Delta-E=       -0.000001998786 Rises=F Damp=F
 DIIS: error= 1.53D-05 at cycle   7 NSaved=   7.
 NSaved= 7 IEnMin= 7 EnMin= 0.194765790986935E-01 IErMin= 7 ErrMin= 1.53D-05
 ErrMax= 1.53D-05  0.00D+00 EMaxC= 1.00D-01 BMatC= 1.15D-08 BMatP= 3.39D-07
 IDIUse=1 WtCom= 1.00D+00 WtEn= 0.00D+00
 Coeff-Com: -0.190D-03 0.112D-02-0.776D-03-0.243D-01 0.125D+00-0.463D+00
 Coeff-Com:  0.136D+01
 Coeff:     -0.190D-03 0.112D-02-0.776D-03-0.243D-01 0.125D+00-0.463D+00
 Coeff:      0.136D+01
 Gap=     0.270 Goal=   None    Shift=    0.000
 RMSDP=7.89D-06 MaxDP=7.44D-05 DE=-2.00D-06 OVMax= 1.13D-04

 Cycle   8  Pass 1  IDiag  3:
 E= 0.194765149437899E-01 Delta-E=       -0.000000064155 Rises=F Damp=F
 DIIS: error= 5.39D-06 at cycle   8 NSaved=   8.
 NSaved= 8 IEnMin= 8 EnMin= 0.194765149437899E-01 IErMin= 8 ErrMin= 5.39D-06
 ErrMax= 5.39D-06  0.00D+00 EMaxC= 1.00D-01 BMatC= 1.08D-09 BMatP= 1.15D-08
 IDIUse=1 WtCom= 1.00D+00 WtEn= 0.00D+00
 Coeff-Com: -0.578D-04 0.112D-03-0.273D-03 0.207D-02-0.111D-01 0.549D-01
 Coeff-Com: -0.425D+00 0.138D+01
 Coeff:     -0.578D-04 0.112D-03-0.273D-03 0.207D-02-0.111D-01 0.549D-01
 Coeff:     -0.425D+00 0.138D+01
 Gap=     0.270 Goal=   None    Shift=    0.000
 RMSDP=2.69D-06 MaxDP=2.56D-05 DE=-6.42D-08 OVMax= 3.48D-05

 Cycle   9  Pass 1  IDiag  3:
 E= 0.194765083568598E-01 Delta-E=       -0.000000006587 Rises=F Damp=F
 DIIS: error= 1.15D-06 at cycle   9 NSaved=   9.
 NSaved= 9 IEnMin= 9 EnMin= 0.194765083568598E-01 IErMin= 9 ErrMin= 1.15D-06
 ErrMax= 1.15D-06  0.00D+00 EMaxC= 1.00D-01 BMatC= 9.83D-11 BMatP= 1.08D-09
 IDIUse=1 WtCom= 1.00D+00 WtEn= 0.00D+00
 Coeff-Com:  0.929D-05-0.344D-04 0.925D-04 0.411D-03-0.260D-02 0.824D-02
 Coeff-Com:  0.658D-01-0.554D+00 0.148D+01
 Coeff:      0.929D-05-0.344D-04 0.925D-04 0.411D-03-0.260D-02 0.824D-02
 Coeff:      0.658D-01-0.554D+00 0.148D+01
 Gap=     0.270 Goal=   None    Shift=    0.000
 RMSDP=8.81D-07 MaxDP=9.14D-06 DE=-6.59D-09 OVMax= 1.15D-05

 Cycle  10  Pass 1  IDiag  3:
 E= 0.194765077173145E-01 Delta-E=       -0.000000000640 Rises=F Damp=F
 DIIS: error= 3.34D-07 at cycle  10 NSaved=  10.
 NSaved=10 IEnMin=10 EnMin= 0.194765077173145E-01 IErMin=10 ErrMin= 3.34D-07
 ErrMax= 3.34D-07  0.00D+00 EMaxC= 1.00D-01 BMatC= 6.23D-12 BMatP= 9.83D-11
 IDIUse=1 WtCom= 1.00D+00 WtEn= 0.00D+00
 Coeff-Com:  0.996D-06 0.932D-06-0.220D-04-0.174D-03 0.120D-02-0.505D-02
 Coeff-Com: -0.102D-01 0.178D+00-0.687D+00 0.152D+01
 Coeff:      0.996D-06 0.932D-06-0.220D-04-0.174D-03 0.120D-02-0.505D-02
 Coeff:     -0.102D-01 0.178D+00-0.687D+00 0.152D+01
 Gap=     0.270 Goal=   None    Shift=    0.000
 RMSDP=2.28D-07 MaxDP=2.64D-06 DE=-6.40D-10 OVMax= 2.67D-06

 Cycle  11  Pass 1  IDiag  3:
 E= 0.194765076761314E-01 Delta-E=       -0.000000000041 Rises=F Damp=F
 DIIS: error= 8.25D-08 at cycle  11 NSaved=  11.
 NSaved=11 IEnMin=11 EnMin= 0.194765076761314E-01 IErMin=11 ErrMin= 8.25D-08
 ErrMax= 8.25D-08  0.00D+00 EMaxC= 1.00D-01 BMatC= 3.54D-13 BMatP= 6.23D-12
 IDIUse=1 WtCom= 1.00D+00 WtEn= 0.00D+00
 Coeff-Com: -0.473D-06 0.327D-06 0.173D-05 0.608D-04-0.366D-03 0.160D-02
 Coeff-Com: -0.150D-02-0.271D-01 0.148D+00-0.524D+00 0.140D+01
 Coeff:     -0.473D-06 0.327D-06 0.173D-05 0.608D-04-0.366D-03 0.160D-02
 Coeff:     -0.150D-02-0.271D-01 0.148D+00-0.524D+00 0.140D+01
 Gap=     0.270 Goal=   None    Shift=    0.000
 RMSDP=5.04D-08 MaxDP=6.12D-07 DE=-4.12D-11 OVMax= 4.93D-07

 Cycle  12  Pass 1  IDiag  3:
 E= 0.194765076730334E-01 Delta-E=       -0.000000000003 Rises=F Damp=F
 DIIS: error= 1.67D-08 at cycle  12 NSaved=  12.
 NSaved=12 IEnMin=12 EnMin= 0.194765076730334E-01 IErMin=12 ErrMin= 1.67D-08
 ErrMax= 1.67D-08  0.00D+00 EMaxC= 1.00D-01 BMatC= 2.16D-14 BMatP= 3.54D-13
 IDIUse=1 WtCom= 1.00D+00 WtEn= 0.00D+00
 Coeff-Com: -0.174D-08-0.326D-07 0.585D-06-0.570D-06-0.592D-05 0.291D-04
 Coeff-Com:  0.395D-03-0.224D-02 0.253D-02 0.398D-01-0.379D+00 0.134D+01
 Coeff:     -0.174D-08-0.326D-07 0.585D-06-0.570D-06-0.592D-05 0.291D-04
 Coeff:      0.395D-03-0.224D-02 0.253D-02 0.398D-01-0.379D+00 0.134D+01
 Gap=     0.270 Goal=   None    Shift=    0.000
 RMSDP=1.31D-08 MaxDP=1.28D-07 DE=-3.10D-12 OVMax= 2.10D-07

 Cycle  13  Pass 1  IDiag  3:
 E= 0.194765076735450E-01 Delta-E=        0.000000000001 Rises=F Damp=F
 DIIS: error= 4.01D-09 at cycle  13 NSaved=  13.
 NSaved=13 IEnMin=12 EnMin= 0.194765076730334E-01 IErMin=13 ErrMin= 4.01D-09
 ErrMax= 4.01D-09  0.00D+00 EMaxC= 1.00D-01 BMatC= 1.13D-15 BMatP= 2.16D-14
 IDIUse=1 WtCom= 1.00D+00 WtEn= 0.00D+00
 Coeff-Com:  0.448D-07-0.163D-06-0.743D-07-0.315D-06 0.520D-05-0.306D-04
 Coeff-Com: -0.254D-03 0.236D-02-0.802D-02 0.117D-01 0.515D-01-0.425D+00
 Coeff-Com:  0.137D+01
 Coeff:      0.448D-07-0.163D-06-0.743D-07-0.315D-06 0.520D-05-0.306D-04
 Coeff:     -0.254D-03 0.236D-02-0.802D-02 0.117D-01 0.515D-01-0.425D+00
 Coeff:      0.137D+01
 Gap=     0.270 Goal=   None    Shift=    0.000
 RMSDP=3.15D-09 MaxDP=3.68D-08 DE= 5.12D-13 OVMax= 6.18D-08

 Cycle  14  Pass 2  IDiag  1:
 SCF Done:  E(RPM7) =  0.194765076735E-01 A.U. after   14 cycles
            NFock= 13  Conv=0.32D-08     -V/T= 1.0003
 KE=-7.114523910879D+01 PE=-3.285332999076D+02 EE= 1.850140927050D+02
 Leave Link  502 at Sat Dec 13 15:04:33 2025, MaxMem=   536870912 cpu:               1.0 elap:               0.7
 (Enter D:\G16W\l801.exe)
 Range of M.O.s used for correlation:     1    47
 NBasis=    47 NAE=    23 NBE=    23 NFC=     0 NFV=     0
 NROrb=     47 NOA=    23 NOB=    23 NVA=    24 NVB=    24
 Leave Link  801 at Sat Dec 13 15:04:33 2025, MaxMem=   536870912 cpu:               0.0 elap:               0.1
 (Enter D:\G16W\l1101.exe)
 Using compressed storage, NAtomX=    21.
 Will process     22 centers per pass.
 R6Disp: Adding PM7 dispersion energy 1st derivatives to the gradient.
 Leave Link 1101 at Sat Dec 13 15:04:33 2025, MaxMem=   536870912 cpu:               0.0 elap:               0.2
 (Enter D:\G16W\l1102.exe)
 Symmetrizing basis deriv contribution to polar:
 IMax=3 JMax=2 DiffMx= 0.00D+00
 Leave Link 1102 at Sat Dec 13 15:04:33 2025, MaxMem=   536870912 cpu:               0.0 elap:               0.1
 (Enter D:\G16W\l1110.exe)
 Forming Gx(P) for the SCF density, NAtomX=    21.
 Integral derivatives from FoFJK, PRISM(SPDF).
 Do as many integral derivatives as possible in FoFJK.
 G2DrvN: MDV=     536810388.
 G2DrvN: will do    22 centers at a time, making    1 passes.
 Calling FoFCou, ICntrl=  3107 FMM=F I1Cent=   0 AccDes= 0.00D+00.
 FoFJK:  IHMeth=43 ICntrl=    3107 DoSepK=F KAlg= 0 I1Cent=           0 FoldK=F
 IRaf=         0 NMat=       1 IRICut=       1 DoRegI=T DoRafI=F ISym2E= 0 IDoP0=3 IntGTp=3.
 FoFCou: FMM=F IPFlag=           0 FMFlag=      100000 FMFlg1=           0
         NFxFlg=           0 DoJE=F BraDBF=F KetDBF=F FulRan=T
         wScrn=  0.000000 ICntrl=      3107 IOpCl=  0 I1Cent=           0 NGrid=           0
         NMat0=    1 NMatS0=      1 NMatT0=    0 NMatD0=    1 NMtDS0=    0 NMtDT0=    0
 Symmetry not used in FoFCou.
 End of G2Drv F.D. properties file   721 does not exist.
 End of G2Drv F.D. properties file   722 does not exist.
 End of G2Drv F.D. properties file   788 does not exist.
 Leave Link 1110 at Sat Dec 13 15:04:33 2025, MaxMem=   536870912 cpu:               0.0 elap:               0.1
 (Enter D:\G16W\l1002.exe)
 Minotr:  Closed shell wavefunction.
          IDoAtm=111111111111111111111
          Direct CPHF calculation.
          Differentiating once with respect to nuclear coordinates.
          Electric field/nuclear overlap derivatives assumed to be zero.
          Requested convergence is 1.0D-08 RMS, and 1.0D-07 maximum.
          NewPWx=T KeepS1=F KeepF1=F KeepIn=T MapXYZ=F SortEE=F KeepMc=T.
 Keep J ints in memory in canonical form, NReq=1856332.
 FoFCou: FMM=F IPFlag=           0 FMFlag=           0 FMFlg1=           0
         NFxFlg=           0 DoJE=F BraDBF=F KetDBF=F FulRan=T
         wScrn=  0.000000 ICntrl=       600 IOpCl=  2 I1Cent=           0 NGrid=           0
         NMat0=    1 NMatS0=    119 NMatT0=    0 NMatD0=    1 NMtDS0=    0 NMtDT0=    0
 Symmetry not used in FoFCou.
 Two-electron integral symmetry not used.
          MDV=     536870912 using IRadAn=       1.
          Solving linear equations separately, MaxMat=       0.
          There are    66 degrees of freedom in the 1st order CPHF.  IDoFFX=5 NUNeed=    66.
 LinEq1:  Iter=  0 NonCon=    63 RMS=1.63D-02 Max=2.46D-01 NDo=    63
 AX will form    66 AO Fock derivatives at one time.
 LinEq1:  Iter=  1 NonCon=    63 RMS=1.84D-03 Max=1.44D-02 NDo=    66
 LinEq1:  Iter=  2 NonCon=    63 RMS=2.75D-04 Max=3.29D-03 NDo=    66
 LinEq1:  Iter=  3 NonCon=    63 RMS=4.60D-05 Max=4.07D-04 NDo=    66
 LinEq1:  Iter=  4 NonCon=    63 RMS=1.01D-05 Max=8.21D-05 NDo=    66
 LinEq1:  Iter=  5 NonCon=    63 RMS=1.23D-06 Max=6.58D-06 NDo=    66
 LinEq1:  Iter=  6 NonCon=    57 RMS=1.91D-07 Max=1.72D-06 NDo=    66
 LinEq1:  Iter=  7 NonCon=    15 RMS=2.56D-08 Max=2.04D-07 NDo=    66
 LinEq1:  Iter=  8 NonCon=     0 RMS=4.27D-09 Max=3.01D-08 NDo=    66
 Linear equations converged to 1.000D-08 1.000D-07 after     8 iterations.
 End of Minotr F.D. properties file   721 does not exist.
 End of Minotr F.D. properties file   722 does not exist.
 End of Minotr F.D. properties file   788 does not exist.
 Leave Link 1002 at Sat Dec 13 15:04:34 2025, MaxMem=   536870912 cpu:               0.0 elap:               0.5
 (Enter D:\G16W\l601.exe)
 Copying SCF densities to generalized density rwf, IOpCl= 0 IROHF=0.

 **********************************************************************

            Population analysis using the SCF density.

 **********************************************************************

 Alpha  occ. eigenvalues --   -1.37781  -1.03387  -1.01250  -0.94138  -0.86076
 Alpha  occ. eigenvalues --   -0.79086  -0.70786  -0.70075  -0.65260  -0.61674
 Alpha  occ. eigenvalues --   -0.58530  -0.57741  -0.55692  -0.54640  -0.53182
 Alpha  occ. eigenvalues --   -0.52812  -0.51076  -0.48955  -0.48654  -0.45758
 Alpha  occ. eigenvalues --   -0.28799  -0.28586  -0.28579
 Alpha virt. eigenvalues --   -0.01635   0.05346   0.09938   0.10135   0.10280
 Alpha virt. eigenvalues --    0.13845   0.14692   0.15822   0.16165   0.16517
 Alpha virt. eigenvalues --    0.16910   0.17009   0.17486   0.17813   0.18549
 Alpha virt. eigenvalues --    0.18673   0.18868   0.20805   0.21705   4.82748
 Alpha virt. eigenvalues --    4.82758   4.82911   4.83740   4.83740
          Condensed to atoms (all electrons):
               1          2          3          4          5          6
     1  C    4.479012   0.000000   0.000000   0.000000   0.000000   0.000000
     2  C    0.000000   4.119063   0.000000   0.000000   0.000000   0.000000
     3  N    0.000000   0.000000   5.395451   0.000000   0.000000   0.000000
     4  C    0.000000   0.000000   0.000000   4.118981   0.000000   0.000000
     5  C    0.000000   0.000000   0.000000   0.000000   4.454822   0.000000
     6  H    0.000000   0.000000   0.000000   0.000000   0.000000   0.831947
     7  H    0.000000   0.000000   0.000000   0.000000   0.000000   0.000000
     8  H    0.000000   0.000000   0.000000   0.000000   0.000000   0.000000
     9  H    0.000000   0.000000   0.000000   0.000000   0.000000   0.000000
    10  H    0.000000   0.000000   0.000000   0.000000   0.000000   0.000000
    11  H    0.000000   0.000000   0.000000   0.000000   0.000000   0.000000
    12  H    0.000000   0.000000   0.000000   0.000000   0.000000   0.000000
    13  H    0.000000   0.000000   0.000000   0.000000   0.000000   0.000000
    14  H    0.000000   0.000000   0.000000   0.000000   0.000000   0.000000
    15  H    0.000000   0.000000   0.000000   0.000000   0.000000   0.000000
    16  H    0.000000   0.000000   0.000000   0.000000   0.000000   0.000000
    17  C    0.000000   0.000000   0.000000   0.000000   0.000000   0.000000
    18  I    0.000000   0.000000   0.000000   0.000000   0.000000   0.000000
    19  H    0.000000   0.000000   0.000000   0.000000   0.000000   0.000000
    20  H    0.000000   0.000000   0.000000   0.000000   0.000000   0.000000
    21  H    0.000000   0.000000   0.000000   0.000000   0.000000   0.000000
               7          8          9         10         11         12
     1  C    0.000000   0.000000   0.000000   0.000000   0.000000   0.000000
     2  C    0.000000   0.000000   0.000000   0.000000   0.000000   0.000000
     3  N    0.000000   0.000000   0.000000   0.000000   0.000000   0.000000
     4  C    0.000000   0.000000   0.000000   0.000000   0.000000   0.000000
     5  C    0.000000   0.000000   0.000000   0.000000   0.000000   0.000000
     6  H    0.000000   0.000000   0.000000   0.000000   0.000000   0.000000
     7  H    0.844477   0.000000   0.000000   0.000000   0.000000   0.000000
     8  H    0.000000   0.846335   0.000000   0.000000   0.000000   0.000000
     9  H    0.000000   0.000000   0.836976   0.000000   0.000000   0.000000
    10  H    0.000000   0.000000   0.000000   0.838709   0.000000   0.000000
    11  H    0.000000   0.000000   0.000000   0.000000   0.727968   0.000000
    12  H    0.000000   0.000000   0.000000   0.000000   0.000000   0.845167
    13  H    0.000000   0.000000   0.000000   0.000000   0.000000   0.000000
    14  H    0.000000   0.000000   0.000000   0.000000   0.000000   0.000000
    15  H    0.000000   0.000000   0.000000   0.000000   0.000000   0.000000
    16  H    0.000000   0.000000   0.000000   0.000000   0.000000   0.000000
    17  C    0.000000   0.000000   0.000000   0.000000   0.000000   0.000000
    18  I    0.000000   0.000000   0.000000   0.000000   0.000000   0.000000
    19  H    0.000000   0.000000   0.000000   0.000000   0.000000   0.000000
    20  H    0.000000   0.000000   0.000000   0.000000   0.000000   0.000000
    21  H    0.000000   0.000000   0.000000   0.000000   0.000000   0.000000
              13         14         15         16         17         18
     1  C    0.000000   0.000000   0.000000   0.000000   0.000000   0.000000
     2  C    0.000000   0.000000   0.000000   0.000000   0.000000   0.000000
     3  N    0.000000   0.000000   0.000000   0.000000   0.000000   0.000000
     4  C    0.000000   0.000000   0.000000   0.000000   0.000000   0.000000
     5  C    0.000000   0.000000   0.000000   0.000000   0.000000   0.000000
     6  H    0.000000   0.000000   0.000000   0.000000   0.000000   0.000000
     7  H    0.000000   0.000000   0.000000   0.000000   0.000000   0.000000
     8  H    0.000000   0.000000   0.000000   0.000000   0.000000   0.000000
     9  H    0.000000   0.000000   0.000000   0.000000   0.000000   0.000000
    10  H    0.000000   0.000000   0.000000   0.000000   0.000000   0.000000
    11  H    0.000000   0.000000   0.000000   0.000000   0.000000   0.000000
    12  H    0.000000   0.000000   0.000000   0.000000   0.000000   0.000000
    13  H    0.862568   0.000000   0.000000   0.000000   0.000000   0.000000
    14  H    0.000000   0.838023   0.000000   0.000000   0.000000   0.000000
    15  H    0.000000   0.000000   0.824511   0.000000   0.000000   0.000000
    16  H    0.000000   0.000000   0.000000   0.845919   0.000000   0.000000
    17  C    0.000000   0.000000   0.000000   0.000000   4.040970   0.000000
    18  I    0.000000   0.000000   0.000000   0.000000   0.000000   7.705465
    19  H    0.000000   0.000000   0.000000   0.000000   0.000000   0.000000
    20  H    0.000000   0.000000   0.000000   0.000000   0.000000   0.000000
    21  H    0.000000   0.000000   0.000000   0.000000   0.000000   0.000000
              19         20         21
     1  C    0.000000   0.000000   0.000000
     2  C    0.000000   0.000000   0.000000
     3  N    0.000000   0.000000   0.000000
     4  C    0.000000   0.000000   0.000000
     5  C    0.000000   0.000000   0.000000
     6  H    0.000000   0.000000   0.000000
     7  H    0.000000   0.000000   0.000000
     8  H    0.000000   0.000000   0.000000
     9  H    0.000000   0.000000   0.000000
    10  H    0.000000   0.000000   0.000000
    11  H    0.000000   0.000000   0.000000
    12  H    0.000000   0.000000   0.000000
    13  H    0.000000   0.000000   0.000000
    14  H    0.000000   0.000000   0.000000
    15  H    0.000000   0.000000   0.000000
    16  H    0.000000   0.000000   0.000000
    17  C    0.000000   0.000000   0.000000
    18  I    0.000000   0.000000   0.000000
    19  H    0.847240   0.000000   0.000000
    20  H    0.000000   0.851300   0.000000
    21  H    0.000000   0.000000   0.845096
 Mulliken charges:
               1
     1  C   -0.479012
     2  C   -0.119063
     3  N   -0.395451
     4  C   -0.118981
     5  C   -0.454822
     6  H    0.168053
     7  H    0.155523
     8  H    0.153665
     9  H    0.163024
    10  H    0.161291
    11  H    0.272032
    12  H    0.154833
    13  H    0.137432
    14  H    0.161977
    15  H    0.175489
    16  H    0.154081
    17  C   -0.040970
    18  I   -0.705465
    19  H    0.152760
    20  H    0.148700
    21  H    0.154904
 Sum of Mulliken charges =   0.00000
 Mulliken charges with hydrogens summed into heavy atoms:
               1
     1  C   -0.001771
     2  C    0.205253
     3  N   -0.123420
     4  C    0.173284
     5  C    0.036725
    17  C    0.415394
    18  I   -0.705465
 APT charges:
               1
     1  C   -0.479012
     2  C   -0.119063
     3  N   -0.395451
     4  C   -0.118981
     5  C   -0.454822
     6  H    0.168053
     7  H    0.155523
     8  H    0.153665
     9  H    0.163024
    10  H    0.161291
    11  H    0.272032
    12  H    0.154833
    13  H    0.137432
    14  H    0.161977
    15  H    0.175489
    16  H    0.154081
    17  C   -0.040970
    18  I   -0.705465
    19  H    0.152760
    20  H    0.148700
    21  H    0.154904
 Sum of APT charges =   0.00000
 APT charges with hydrogens summed into heavy atoms:
               1
     1  C   -0.001771
     2  C    0.205253
     3  N   -0.123420
     4  C    0.173284
     5  C    0.036725
    17  C    0.415394
    18  I   -0.705465
 Charge=              0.0000 electrons
 Dipole moment (field-independent basis, Debye):
    X=             13.7645    Y=              0.0584    Z=              1.2485  Tot=             13.8211
 N-N= 2.146839228191D+02 E-N=-3.285333000984D+02  KE=-7.114523910879D+01
  Exact polarizability:   0.000   0.000   0.000   0.000   0.000   0.000
 Approx polarizability:  96.380  -0.738  31.790   7.313   0.649  29.557
 Leave Link  601 at Sat Dec 13 15:04:34 2025, MaxMem=   536870912 cpu:               0.0 elap:               0.1
 (Enter D:\G16W\l701.exe)
 ... and contract with generalized density number  0.
 Compute integral second derivatives.
 R6Disp: Adding PM7 dispersion energy 2nd derivatives to the Hessian.
 Leave Link  701 at Sat Dec 13 15:04:34 2025, MaxMem=   536870912 cpu:               0.0 elap:               0.2
 (Enter D:\G16W\l702.exe)
 L702 exits ... SP integral derivatives will be done elsewhere.
 Leave Link  702 at Sat Dec 13 15:04:35 2025, MaxMem=   536870912 cpu:               1.0 elap:               0.2
 (Enter D:\G16W\l703.exe)
 Integral derivatives from FoFJK, PRISM(SPDF).
 Compute integral second derivatives, UseDBF=F ICtDFT=           0.
 Calling FoFJK, ICntrl=    100147 FMM=F ISym2X=0 I1Cent= 0 IOpClX= 0 NMat=1 NMatS=1 NMatT=0.
 FoFJK:  IHMeth=43 ICntrl=  100147 DoSepK=F KAlg= 0 I1Cent=           0 FoldK=F
 IRaf=         0 NMat=       1 IRICut=       1 DoRegI=T DoRafI=F ISym2E= 0 IDoP0=3 IntGTp=3.
 FoFCou: FMM=F IPFlag=           0 FMFlag=      100000 FMFlg1=         800
         NFxFlg=           0 DoJE=F BraDBF=F KetDBF=F FulRan=T
         wScrn=  0.000000 ICntrl=    100147 IOpCl=  0 I1Cent=           0 NGrid=           0
         NMat0=    1 NMatS0=      1 NMatT0=    0 NMatD0=    1 NMtDS0=    0 NMtDT0=    0
 Symmetry not used in FoFCou.
 Leave Link  703 at Sat Dec 13 15:04:35 2025, MaxMem=   536870912 cpu:               0.0 elap:               0.1
 (Enter D:\G16W\l716.exe)
 Dipole        = 5.41537443D+00 2.29622252D-02 4.91179944D-01
 Polarizability= 0.00000000D+00 0.00000000D+00 0.00000000D+00
                 0.00000000D+00 0.00000000D+00 0.00000000D+00
 -------------------------------------------------------------------
 Center     Atomic                   Forces (Hartrees/Bohr)
 Number     Number              X              Y              Z
 -------------------------------------------------------------------
      1        6          -0.000000121   -0.000000058    0.000000361
      2        6          -0.000000051    0.000000213   -0.000000104
      3        7           0.000000180   -0.000000481    0.000000159
      4        6           0.000000379   -0.000000294   -0.000000384
      5        6           0.000000033    0.000000205    0.000000117
      6        1           0.000000105   -0.000000083   -0.000000186
      7        1          -0.000000036    0.000000052   -0.000000070
      8        1           0.000000005    0.000000089   -0.000000037
      9        1           0.000000114    0.000000145    0.000000073
     10        1          -0.000000038    0.000000008   -0.000000092
     11        1          -0.000000096    0.000000150   -0.000000051
     12        1          -0.000000092    0.000000166    0.000000214
     13        1          -0.000000211    0.000000056    0.000000004
     14        1          -0.000000052   -0.000000128   -0.000000059
     15        1           0.000000011   -0.000000022   -0.000000005
     16        1           0.000000011   -0.000000078    0.000000044
     17        6          -0.000000072    0.000000484   -0.000000097
     18       53          -0.000000063    0.000000005   -0.000000012
     19        1           0.000000033   -0.000000016   -0.000000052
     20        1          -0.000000043   -0.000000336    0.000000019
     21        1           0.000000005   -0.000000078    0.000000157
 -------------------------------------------------------------------
 Cartesian Forces:  Max     0.000000484 RMS     0.000000162
 Z-matrix is all fixed cartesians, so copy forces.
 Leave Link  716 at Sat Dec 13 15:04:35 2025, MaxMem=   536870912 cpu:               0.0 elap:               0.1
 (Enter D:\G16W\l123.exe)
 IRC-IRC-IRC-IRC-IRC-IRC-IRC-IRC-IRC-IRC-IRC-IRC-IRC-IRC-IRC-IRC-IRC-IRC
          ******** Start new reaction path calculation ********
 Current Structure is TS -> form Hessian eigenvectors.
                            Diagonalizing Hessian.
 Supplied step size of   0.0500 bohr.
    Integration on MW PES will use step size of   0.1664 sqrt(amu)*bohr.
 Point Number:   0          Path Number:   1
 Calculating another point on the path.
 Point Number  1 in FORWARD path direction.
 Using LQA Reaction Path Following.
 IRC-IRC-IRC-IRC-IRC-IRC-IRC-IRC-IRC-IRC-IRC-IRC-IRC-IRC-IRC-IRC-IRC-IRC
 Leave Link  123 at Sat Dec 13 15:04:35 2025, MaxMem=   536870912 cpu:               0.0 elap:               0.1
 (Enter D:\G16W\l202.exe)
                          Input orientation:                          
 ---------------------------------------------------------------------
 Center     Atomic      Atomic             Coordinates (Angstroms)
 Number     Number       Type             X           Y           Z
 ---------------------------------------------------------------------
      1          6           0        4.598421   -1.427625   -0.152389
      2          6           0        3.175510   -0.992702   -0.491351
      3          7           0        2.561392   -0.150759    0.577030
      4          6           0        3.106904    1.242861    0.630159
      5          6           0        2.733534    2.072627   -0.595003
      6          1           0        5.002479   -2.085115   -0.935561
      7          1           0        4.650630   -1.990491    0.787235
      8          1           0        5.286932   -0.578392   -0.071757
      9          1           0        2.523818   -1.888761   -0.630396
     10          1           0        3.152523   -0.440499   -1.457161
     11          1           0        2.701052   -0.602765    1.492790
     12          1           0        2.696487    1.726953    1.548170
     13          1           0        4.213040    1.221352    0.749778
     14          1           0        3.154582    3.084983   -0.516736
     15          1           0        1.645849    2.193408   -0.703733
     16          1           0        3.112725    1.643059   -1.529312
     17          6           0        0.662371   -0.119431    0.316541
     18         53           0       -1.950010   -0.072010   -0.033368
     19          1           0        0.519440    0.664560    1.050534
     20          1           0        0.552542   -1.156343    0.610983
     21          1           0        0.743985    0.133364   -0.733503
 ---------------------------------------------------------------------
                    Distance matrix (angstroms):
                    1          2          3          4          5
     1  C    0.000000
     2  C    1.526017   0.000000
     3  N    2.512355   1.492464   0.000000
     4  C    3.157293   2.502046   1.497525   0.000000
     5  C    3.990673   3.098762   2.519273   1.526086   0.000000
     6  H    1.099507   2.174513   3.462452   4.137645   4.748780
     7  H    1.096557   2.192338   2.791723   3.586408   4.700507
     8  H    1.096242   2.192217   2.834142   2.926118   3.717731
     9  H    2.178328   1.116673   2.116587   3.425791   3.967093
    10  H    2.183453   1.112765   2.138065   2.681919   2.689734
    11  H    2.643296   2.077012   1.030742   2.077302   3.393767
    12  H    4.057168   3.433020   2.118292   1.116033   2.171187
    13  H    2.824801   2.742062   2.154175   1.112792   2.173026
    14  H    4.751952   4.077817   3.466731   2.170496   1.099214
    15  H    4.704630   3.540659   2.823773   2.194879   1.099759
    16  H    3.678629   2.833468   2.821069   2.196249   1.096015
    17  C    4.174177   2.780496   1.917059   2.816014   3.150516
    18  I    6.688333   5.227655   4.553189   5.267023   5.181745
    19  H    4.739446   3.489790   2.249115   2.684422   3.097202
    20  H    4.126193   2.849891   2.246738   3.504470   4.078894
    21  H    4.198935   2.690535   2.258582   2.945156   2.781767
                    6          7          8          9         10
     6  H    0.000000
     7  H    1.760903   0.000000
     8  H    1.759911   1.771093   0.000000
     9  H    2.505084   2.557999   3.108689   0.000000
    10  H    2.529657   3.111931   2.548344   1.782210   0.000000
    11  H    3.659347   2.494884   3.022445   2.488597   2.988707
    12  H    5.100822   4.268148   3.827424   4.224849   3.733340
    13  H    3.794246   3.241731   2.251053   3.798836   2.959227
    14  H    5.506365   5.449673   4.262069   5.014869   3.648757
    15  H    5.443021   5.362529   4.619497   4.176160   3.126530
    16  H    4.221729   4.575394   3.433145   3.691695   2.085187
    17  C    4.926278   4.430421   4.663473   2.737188   3.074079
    18  I    7.294083   6.922601   7.254737   4.865404   5.310256
    19  H    5.621649   4.917861   5.053063   3.655476   3.800371
    20  H    4.801704   4.185833   4.818154   2.442005   3.398464
    21  H    4.805960   4.699499   4.645737   2.695816   2.579546
                   11         12         13         14         15
    11  H    0.000000
    12  H    2.330380   0.000000
    13  H    2.483058   1.786895   0.000000
    14  H    4.224141   2.513549   2.489480   0.000000
    15  H    3.709010   2.528337   3.106132   1.762427   0.000000
    16  H    3.787651   3.106636   2.565693   1.762444   1.770930
    17  C    2.402788   3.010593   3.820031   4.144121   2.712456
    18  I    4.923741   5.227567   6.345808   6.021387   4.302523
    19  H    2.561471   2.473025   3.747419   3.906246   2.585272
    20  H    2.387494   3.713248   4.367143   5.102078   3.760935
    21  H    3.054239   3.399680   3.926599   3.817070   2.249006
                   16         17         18         19         20
    16  H    0.000000
    17  C    3.538048   0.000000
    18  I    5.550729   2.636137   0.000000
    19  H    3.786581   1.083429   2.795632   0.000000
    20  H    4.355692   1.083486   2.802451   1.873496   0.000000
    21  H    2.919490   1.083125   2.791052   1.874935   1.872869
                   21
    21  H    0.000000
 Symmetry turned off by external request.
 Stoichiometry    C5H14IN
 Framework group  C1[X(C5H14IN)]
 Deg. of freedom    57
 Full point group                 C1      NOp   1
 Rotational constants (GHZ):           2.8642996           0.3770217           0.3481345
 Leave Link  202 at Sat Dec 13 15:04:35 2025, MaxMem=   536870912 cpu:               0.0 elap:               0.1
 (Enter D:\G16W\l301.exe)
 Standard basis: VSTO-6G (5D, 7F)
 Ernie: Thresh=  0.10000D-02 Tol=  0.10000D-05 Strict=F.
 EHB=         0.000000000 Number of Hydrogen Bonds=     0
  NNHCO=     0 NNPyr=     0 NCTC=     0               EPep=         0.000000000
    EC=       166.325802816  ECS=         3.113218257   EG=         0.585747250
   EHC=         0.000552377  EAt=       -41.819221151  AtH=         2.744811147
 EPDDG=         0.000000000  ECC=       170.025320700 EAtT=        44.564032299
  EHyb=         0.000000000
    47 basis functions,   288 primitive gaussians,    48 cartesian basis functions
    23 alpha electrons       23 beta electrons
       nuclear repulsion energy       214.5893529981 Hartrees.
 IExCor=    0 DFT=F Ex=HF Corr=None ExCW=0 ScaHFX=  1.000000
 ScaDFX=  1.000000  1.000000  1.000000  1.000000 ScalE2=  1.000000  1.000000
 IRadAn=      5 IRanWt=     -1 IRanGd=            0 ICorTp=0 IEmpDi=251
 Integral buffers will be    131072 words long.
 Regular integral format.
 Two-electron integral symmetry is turned off.
 R6Disp:  PM7 Dispersion energy=       -0.0040852138 Hartrees.
 Nuclear repulsion after empirical dispersion term =      214.5852677842 Hartrees.
 Leave Link  301 at Sat Dec 13 15:04:35 2025, MaxMem=   536870912 cpu:               0.0 elap:               0.1
 (Enter D:\G16W\l302.exe)
 Do NDO integrals.
 NPDir=0 NMtPBC=     1 NCelOv=     1 NCel=       1 NClECP=     1 NCelD=      1
         NCelK=      1 NCelE2=     1 NClLst=     1 CellRange=     0.0.
 One-electron integrals computed using PRISM.
 NBasis=    47 RedAO= F EigKep=  0.00D+00  NBF=    47
 NBsUse=    47 1.00D-04 EigRej=  0.00D+00 NBFU=    47
 Leave Link  302 at Sat Dec 13 15:04:36 2025, MaxMem=   536870912 cpu:               1.0 elap:               0.2
 (Enter D:\G16W\l303.exe)
 DipDrv:  MaxL=1.
 Leave Link  303 at Sat Dec 13 15:04:36 2025, MaxMem=   536870912 cpu:               0.0 elap:               0.1
 (Enter D:\G16W\l401.exe)
 Initial guess from the checkpoint file:  ".\Gau-14396.chk"
 B after Tr=     0.730375    0.031033    0.003267
         Rot=    1.000000    0.000014    0.000000   -0.000004 Ang=   0.00 deg.
 Guess basis will be translated and rotated to current coordinates.
 JPrj=0 DoOrth=T DoCkMO=T.
 Leave Link  401 at Sat Dec 13 15:04:36 2025, MaxMem=   536870912 cpu:               0.0 elap:               0.2
 (Enter D:\G16W\l502.exe)
 Keep J ints in memory in canonical form, NReq=1854372.
 FoFCou: FMM=F IPFlag=           0 FMFlag=           0 FMFlg1=           0
         NFxFlg=           0 DoJE=F BraDBF=F KetDBF=F FulRan=T
         wScrn=  0.000000 ICntrl=       600 IOpCl=  2 I1Cent=           0 NGrid=           0
         NMat0=    1 NMatS0=    119 NMatT0=    0 NMatD0=    1 NMtDS0=    0 NMtDT0=    0
 Symmetry not used in FoFCou.
 Two-electron integral symmetry not used.
 Closed shell SCF:
 Using DIIS extrapolation, IDIIS=  1040.
 Overlap will be assumed to be unity.
 NGot=   536870912 LenX=   536798937 LenY=   536796192
 Requested convergence on RMS density matrix=1.00D-08 within 128 cycles.
 Requested convergence on MAX density matrix=1.00D-06.
 Requested convergence on             energy=1.00D-06.
 No special actions if energy rises.

 Cycle   1  Pass 1  IDiag  1:
 E= 0.199575751765906E-01
 DIIS: error= 2.83D-03 at cycle   1 NSaved=   1.
 NSaved= 1 IEnMin= 1 EnMin= 0.199575751765906E-01 IErMin= 1 ErrMin= 2.83D-03
 ErrMax= 2.83D-03  0.00D+00 EMaxC= 1.00D-01 BMatC= 1.28D-04 BMatP= 1.28D-04
 IDIUse=3 WtCom= 9.72D-01 WtEn= 2.83D-02
 Coeff-Com:  0.100D+01
 Coeff-En:   0.100D+01
 Coeff:      0.100D+01
 GapD=    2.000 DampG=2.000 DampE=1.000 DampFc=2.0000 IDamp=-1.
 RMSDP=5.92D-04 MaxDP=9.01D-03              OVMax= 0.00D+00

 Cycle   2  Pass 1  IDiag  3:
 E= 0.194270677196471E-01 Delta-E=       -0.000530507457 Rises=F Damp=F
 DIIS: error= 1.09D-03 at cycle   2 NSaved=   2.
 NSaved= 2 IEnMin= 2 EnMin= 0.194270677196471E-01 IErMin= 2 ErrMin= 1.09D-03
 ErrMax= 1.09D-03  0.00D+00 EMaxC= 1.00D-01 BMatC= 2.00D-05 BMatP= 1.28D-04
 IDIUse=3 WtCom= 9.89D-01 WtEn= 1.09D-02
 Coeff-Com: -0.437D+00 0.144D+01
 Coeff-En:   0.000D+00 0.100D+01
 Coeff:     -0.432D+00 0.143D+01
 Gap=     0.273 Goal=   None    Shift=    0.000
 RMSDP=3.79D-04 MaxDP=5.96D-03 DE=-5.31D-04 OVMax= 8.45D-03

 Cycle   3  Pass 1  IDiag  3:
 E= 0.193036952850036E-01 Delta-E=       -0.000123372435 Rises=F Damp=F
 DIIS: error= 1.94D-04 at cycle   3 NSaved=   3.
 NSaved= 3 IEnMin= 3 EnMin= 0.193036952850036E-01 IErMin= 3 ErrMin= 1.94D-04
 ErrMax= 1.94D-04  0.00D+00 EMaxC= 1.00D-01 BMatC= 1.37D-06 BMatP= 2.00D-05
 IDIUse=3 WtCom= 9.98D-01 WtEn= 1.94D-03
 Coeff-Com:  0.506D-01-0.343D+00 0.129D+01
 Coeff-En:   0.000D+00 0.000D+00 0.100D+01
 Coeff:      0.505D-01-0.342D+00 0.129D+01
 Gap=     0.274 Goal=   None    Shift=    0.000
 RMSDP=1.22D-04 MaxDP=2.03D-03 DE=-1.23D-04 OVMax= 2.94D-03

 Cycle   4  Pass 1  IDiag  3:
 E= 0.192926947580929E-01 Delta-E=       -0.000011000527 Rises=F Damp=F
 DIIS: error= 7.17D-05 at cycle   4 NSaved=   4.
 NSaved= 4 IEnMin= 4 EnMin= 0.192926947580929E-01 IErMin= 4 ErrMin= 7.17D-05
 ErrMax= 7.17D-05  0.00D+00 EMaxC= 1.00D-01 BMatC= 1.29D-07 BMatP= 1.37D-06
 IDIUse=1 WtCom= 1.00D+00 WtEn= 0.00D+00
 Coeff-Com:  0.193D-01-0.339D-01-0.327D+00 0.134D+01
 Coeff:      0.193D-01-0.339D-01-0.327D+00 0.134D+01
 Gap=     0.274 Goal=   None    Shift=    0.000
 RMSDP=4.47D-05 MaxDP=7.99D-04 DE=-1.10D-05 OVMax= 1.17D-03

 Cycle   5  Pass 1  IDiag  3:
 E= 0.192915963036171E-01 Delta-E=       -0.000001098454 Rises=F Damp=F
 DIIS: error= 1.48D-05 at cycle   5 NSaved=   5.
 NSaved= 5 IEnMin= 5 EnMin= 0.192915963036171E-01 IErMin= 5 ErrMin= 1.48D-05
 ErrMax= 1.48D-05  0.00D+00 EMaxC= 1.00D-01 BMatC= 7.51D-09 BMatP= 1.29D-07
 IDIUse=1 WtCom= 1.00D+00 WtEn= 0.00D+00
 Coeff-Com: -0.984D-02 0.380D-01 0.274D-02-0.414D+00 0.138D+01
 Coeff:     -0.984D-02 0.380D-01 0.274D-02-0.414D+00 0.138D+01
 Gap=     0.274 Goal=   None    Shift=    0.000
 RMSDP=9.58D-06 MaxDP=1.75D-04 DE=-1.10D-06 OVMax= 2.57D-04

 Cycle   6  Pass 1  IDiag  3:
 E= 0.192915462914698E-01 Delta-E=       -0.000000050012 Rises=F Damp=F
 DIIS: error= 1.73D-06 at cycle   6 NSaved=   6.
 NSaved= 6 IEnMin= 6 EnMin= 0.192915462914698E-01 IErMin= 6 ErrMin= 1.73D-06
 ErrMax= 1.73D-06  0.00D+00 EMaxC= 1.00D-01 BMatC= 3.07D-10 BMatP= 7.51D-09
 IDIUse=1 WtCom= 1.00D+00 WtEn= 0.00D+00
 Coeff-Com:  0.280D-02-0.120D-01 0.108D-01 0.914D-01-0.458D+00 0.137D+01
 Coeff:      0.280D-02-0.120D-01 0.108D-01 0.914D-01-0.458D+00 0.137D+01
 Gap=     0.274 Goal=   None    Shift=    0.000
 RMSDP=1.31D-06 MaxDP=1.28D-05 DE=-5.00D-08 OVMax= 1.97D-05

 Cycle   7  Pass 1  IDiag  3:
 E= 0.192915446427833E-01 Delta-E=       -0.000000001649 Rises=F Damp=F
 DIIS: error= 5.83D-07 at cycle   7 NSaved=   7.
 NSaved= 7 IEnMin= 7 EnMin= 0.192915446427833E-01 IErMin= 7 ErrMin= 5.83D-07
 ErrMax= 5.83D-07  0.00D+00 EMaxC= 1.00D-01 BMatC= 2.27D-11 BMatP= 3.07D-10
 IDIUse=1 WtCom= 1.00D+00 WtEn= 0.00D+00
 Coeff-Com: -0.427D-03 0.197D-02-0.289D-02-0.110D-01 0.845D-01-0.493D+00
 Coeff-Com:  0.142D+01
 Coeff:     -0.427D-03 0.197D-02-0.289D-02-0.110D-01 0.845D-01-0.493D+00
 Coeff:      0.142D+01
 Gap=     0.274 Goal=   None    Shift=    0.000
 RMSDP=3.64D-07 MaxDP=4.17D-06 DE=-1.65D-09 OVMax= 2.73D-06

 Cycle   8  Pass 1  IDiag  3:
 E= 0.192915445132087E-01 Delta-E=       -0.000000000130 Rises=F Damp=F
 DIIS: error= 1.78D-07 at cycle   8 NSaved=   8.
 NSaved= 8 IEnMin= 8 EnMin= 0.192915445132087E-01 IErMin= 8 ErrMin= 1.78D-07
 ErrMax= 1.78D-07  0.00D+00 EMaxC= 1.00D-01 BMatC= 1.37D-12 BMatP= 2.27D-11
 IDIUse=1 WtCom= 1.00D+00 WtEn= 0.00D+00
 Coeff-Com:  0.192D-04-0.151D-03 0.484D-03 0.200D-03-0.117D-01 0.119D+00
 Coeff-Com: -0.531D+00 0.142D+01
 Coeff:      0.192D-04-0.151D-03 0.484D-03 0.200D-03-0.117D-01 0.119D+00
 Coeff:     -0.531D+00 0.142D+01
 Gap=     0.274 Goal=   None    Shift=    0.000
 RMSDP=9.27D-08 MaxDP=1.09D-06 DE=-1.30D-10 OVMax= 8.22D-07

 Cycle   9  Pass 1  IDiag  3:
 E= 0.192915445045969E-01 Delta-E=       -0.000000000009 Rises=F Damp=F
 DIIS: error= 5.43D-08 at cycle   9 NSaved=   9.
 NSaved= 9 IEnMin= 9 EnMin= 0.192915445045969E-01 IErMin= 9 ErrMin= 5.43D-08
 ErrMax= 5.43D-08  0.00D+00 EMaxC= 1.00D-01 BMatC= 1.34D-13 BMatP= 1.37D-12
 IDIUse=1 WtCom= 1.00D+00 WtEn= 0.00D+00
 Coeff-Com:  0.297D-04-0.112D-03 0.574D-04 0.865D-03-0.190D-02-0.154D-01
 Coeff-Com:  0.137D+00-0.690D+00 0.157D+01
 Coeff:      0.297D-04-0.112D-03 0.574D-04 0.865D-03-0.190D-02-0.154D-01
 Coeff:      0.137D+00-0.690D+00 0.157D+01
 Gap=     0.274 Goal=   None    Shift=    0.000
 RMSDP=3.48D-08 MaxDP=3.93D-07 DE=-8.61D-12 OVMax= 3.38D-07

 Cycle  10  Pass 1  IDiag  3:
 E= 0.192915445044548E-01 Delta-E=        0.000000000000 Rises=F Damp=F
 DIIS: error= 1.09D-08 at cycle  10 NSaved=  10.
 NSaved=10 IEnMin=10 EnMin= 0.192915445044548E-01 IErMin=10 ErrMin= 1.09D-08
 ErrMax= 1.09D-08  0.00D+00 EMaxC= 1.00D-01 BMatC= 6.47D-15 BMatP= 1.34D-13
 IDIUse=1 WtCom= 1.00D+00 WtEn= 0.00D+00
 Coeff-Com: -0.876D-05 0.374D-04-0.278D-04-0.299D-03 0.136D-02-0.362D-02
 Coeff-Com: -0.289D-02 0.949D-01-0.432D+00 0.134D+01
 Coeff:     -0.876D-05 0.374D-04-0.278D-04-0.299D-03 0.136D-02-0.362D-02
 Coeff:     -0.289D-02 0.949D-01-0.432D+00 0.134D+01
 Gap=     0.274 Goal=   None    Shift=    0.000
 RMSDP=7.18D-09 MaxDP=8.25D-08 DE=-1.42D-13 OVMax= 8.08D-08

 Cycle  11  Pass 2  IDiag  1:
 SCF Done:  E(RPM7) =  0.192915445045E-01 A.U. after   11 cycles
            NFock= 10  Conv=0.72D-08     -V/T= 1.0003
 KE=-7.112156647510D+01 PE=-3.284708534396D+02 EE= 1.850264436750D+02
 Leave Link  502 at Sat Dec 13 15:04:37 2025, MaxMem=   536870912 cpu:               1.0 elap:               0.6
 (Enter D:\G16W\l801.exe)
 Range of M.O.s used for correlation:     1    47
 NBasis=    47 NAE=    23 NBE=    23 NFC=     0 NFV=     0
 NROrb=     47 NOA=    23 NOB=    23 NVA=    24 NVB=    24
 Leave Link  801 at Sat Dec 13 15:04:37 2025, MaxMem=   536870912 cpu:               0.0 elap:               0.1
 (Enter D:\G16W\l1101.exe)
 Leave Link 1101 at Sat Dec 13 15:04:37 2025, MaxMem=   536870912 cpu:               0.0 elap:               0.1
 (Enter D:\G16W\l1102.exe)
 Symmetrizing basis deriv contribution to polar:
 IMax=3 JMax=2 DiffMx= 0.00D+00
 Leave Link 1102 at Sat Dec 13 15:04:37 2025, MaxMem=   536870912 cpu:               0.0 elap:               0.1
 (Enter D:\G16W\l1110.exe)
 Leave Link 1110 at Sat Dec 13 15:04:37 2025, MaxMem=   536870912 cpu:               0.0 elap:               0.1
 (Enter D:\G16W\l1002.exe)
 Minotr:  Closed shell wavefunction.
 Leave Link 1002 at Sat Dec 13 15:04:37 2025, MaxMem=   536870912 cpu:               0.0 elap:               0.1
 (Enter D:\G16W\l701.exe)
 ... and contract with generalized density number  0.
 Compute integral first derivatives.
 R6Disp: Adding PM7 dispersion energy 1st derivatives to the gradient.
 Leave Link  701 at Sat Dec 13 15:04:38 2025, MaxMem=   536870912 cpu:               1.0 elap:               0.2
 (Enter D:\G16W\l702.exe)
 L702 exits ... SP integral derivatives will be done elsewhere.
 Leave Link  702 at Sat Dec 13 15:04:38 2025, MaxMem=   536870912 cpu:               0.0 elap:               0.1
 (Enter D:\G16W\l703.exe)
 Integral derivatives from FoFJK, PRISM(SPDF).
 Compute integral first derivatives, UseDBF=F ICtDFT=           0.
 Calling FoFJK, ICntrl=      2147 FMM=F ISym2X=0 I1Cent= 0 IOpClX= 0 NMat=1 NMatS=1 NMatT=0.
 FoFJK:  IHMeth=43 ICntrl=    2147 DoSepK=F KAlg= 0 I1Cent=           0 FoldK=F
 IRaf=         0 NMat=       1 IRICut=       1 DoRegI=T DoRafI=F ISym2E= 0 IDoP0=3 IntGTp=3.
 FoFCou: FMM=F IPFlag=           0 FMFlag=      100000 FMFlg1=         800
         NFxFlg=           0 DoJE=F BraDBF=F KetDBF=F FulRan=T
         wScrn=  0.000000 ICntrl=      2147 IOpCl=  0 I1Cent=           0 NGrid=           0
         NMat0=    1 NMatS0=      1 NMatT0=    0 NMatD0=    1 NMtDS0=    0 NMtDT0=    0
 Symmetry not used in FoFCou.
 Leave Link  703 at Sat Dec 13 15:04:38 2025, MaxMem=   536870912 cpu:               0.0 elap:               0.1
 (Enter D:\G16W\l716.exe)
 Dipole        = 5.13575011D+00 2.22078591D-02 4.67913670D-01
 Polarizability= 0.00000000D+00 0.00000000D+00 0.00000000D+00
                 0.00000000D+00 0.00000000D+00 0.00000000D+00
 -------------------------------------------------------------------
 Center     Atomic                   Forces (Hartrees/Bohr)
 Number     Number              X              Y              Z
 -------------------------------------------------------------------
      1        6           0.000434984   -0.000249934   -0.000211120
      2        6           0.000470572    0.000166459    0.000166808
      3        7           0.002075791    0.000124631    0.000254729
      4        6           0.000662170    0.000014644    0.000067430
      5        6           0.000059215   -0.000055387    0.000009361
      6        1           0.000030544   -0.000022034   -0.000015884
      7        1           0.000015423   -0.000007441   -0.000009111
      8        1           0.000014376   -0.000005876   -0.000002229
      9        1           0.000000446    0.000047688    0.000057784
     10        1           0.000017978    0.000002311    0.000013857
     11        1           0.000148962    0.000015126    0.000008175
     12        1           0.000007138   -0.000028819   -0.000007965
     13        1           0.000051858    0.000114550    0.000002754
     14        1          -0.000009209    0.000000671   -0.000007829
     15        1           0.000002308   -0.000050494    0.000025712
     16        1          -0.000003035   -0.000030332    0.000012043
     17        6          -0.007253915    0.000057575   -0.000854339
     18       53           0.003138624   -0.000089645    0.000450702
     19        1           0.000052425   -0.000066424   -0.000059393
     20        1           0.000042657    0.000093147   -0.000008023
     21        1           0.000040689   -0.000030416    0.000106539
 -------------------------------------------------------------------
 Cartesian Forces:  Max     0.007253915 RMS     0.001045887
 Z-matrix is all fixed cartesians, so copy forces.
 Leave Link  716 at Sat Dec 13 15:04:38 2025, MaxMem=   536870912 cpu:               0.0 elap:               0.1
 (Enter D:\G16W\l123.exe)
 IRC-IRC-IRC-IRC-IRC-IRC-IRC-IRC-IRC-IRC-IRC-IRC-IRC-IRC-IRC-IRC-IRC-IRC
 Pt  1 Step number   1 out of a maximum of  20
 Using modified Bulirsch-Stoer corrector integration.
   Using distance weighted interpolants to fit PES.
 PreDWI: IReCr0= 2 IReCr1= 1 IReCr2= 1 IReCr3= 1
 Modified Bulirsch-Stoer Extrapolation Cycles:
    EPS =    0.000010000000000
    Cycle     1 NS=    48
      PEZero:  N= 2 I= 1 D=  4.33D-04 Err=  1.22D-03
    Cycle     2 NS=    64 Truncation Error =  0.001218458
      PEZero:  N= 3 I= 2 D=  4.33D-04 Err=  8.12D-04
      PEZero:  N= 3 I= 1 D=  8.67D-04 Err=  4.84D-08
    Cycle     3 NS=    96 Truncation Error =  0.000000048
 BS completed in    3 cycles and     208 integration steps.
 Maximum DWI energy   std dev =  0.000000206 at pt     1
 Maximum DWI gradient std dev =  0.046725737 at pt     2
 SUMMARY OF CORRECTOR INTEGRATION:
   Predictor End Point Energy =     0.019292
   Old End Point Energy       =     0.019292
   Corrected End Point Energy =     0.019291
   Predictor End-Start Dist.  =     0.166370
   Old End-Start Dist.        =     0.166370
   New End-Start Dist.        =     0.166364
   New End-Old End Dist.      =     0.001118
 CORRECTOR INTEGRATION CONVERGENCE:
   Recorrection delta-x convergence threshold:    0.010000
   Delta-x Convergence Met
 Point Number:   1          Path Number:   1
                    CURRENT STRUCTURE
                Cartesian Coordinates (Ang):                
 ---------------------------------------------------------------------
 Center     Atomic                     Coordinates (Angstroms)
 Number     Number                        X           Y           Z
 ---------------------------------------------------------------------
      1          6                    4.598407   -1.427584   -0.152385
      2          6                    3.175517   -0.992672   -0.491359
      3          7                    2.561333   -0.150760    0.577037
      4          6                    3.106940    1.242840    0.630154
      5          6                    2.733572    2.072583   -0.594999
      6          1                    5.002485   -2.085112   -0.935533
      7          1                    4.650619   -1.990444    0.787247
      8          1                    5.286883   -0.578319   -0.071768
      9          1                    2.523815   -1.888715   -0.630416
     10          1                    3.152521   -0.440457   -1.457162
     11          1                    2.701156   -0.602764    1.492810
     12          1                    2.696514    1.726925    1.548160
     13          1                    4.213062    1.221290    0.749762
     14          1                    3.154562    3.084972   -0.516749
     15          1                    1.645870    2.193340   -0.703732
     16          1                    3.112769    1.642976   -1.529287
     17          6                    0.662359   -0.119421    0.316523
     18         53                   -1.950011   -0.072011   -0.033366
     19          1                    0.519536    0.664437    1.050378
     20          1                    0.552630   -1.156139    0.610918
     21          1                    0.744055    0.133344   -0.733305
 ---------------------------------------------------------------------
   CHANGE IN THE REACTION COORDINATE =    0.16636
   NET REACTION COORDINATE UP TO THIS POINT =    0.16636
  # OF POINTS ALONG THE PATH =   1
  # OF STEPS =   1

 Calculating another point on the path.
 Point Number  2 in FORWARD path direction.
 Using LQA Reaction Path Following.
   LQA: T_Est iteration completed in    3 iterations.
 IRC-IRC-IRC-IRC-IRC-IRC-IRC-IRC-IRC-IRC-IRC-IRC-IRC-IRC-IRC-IRC-IRC-IRC
 Leave Link  123 at Sat Dec 13 15:04:38 2025, MaxMem=   536870912 cpu:               0.0 elap:               0.1
 (Enter D:\G16W\l202.exe)
                          Input orientation:                          
 ---------------------------------------------------------------------
 Center     Atomic      Atomic             Coordinates (Angstroms)
 Number     Number       Type             X           Y           Z
 ---------------------------------------------------------------------
      1          6           0        4.599864   -1.428422   -0.153078
      2          6           0        3.176991   -0.992135   -0.490811
      3          7           0        2.567390   -0.150420    0.577781
      4          6           0        3.109060    1.242881    0.630407
      5          6           0        2.733737    2.072436   -0.594995
      6          1           0        5.003601   -2.085742   -0.936042
      7          1           0        4.651251   -1.990662    0.786878
      8          1           0        5.287634   -0.578682   -0.071847
      9          1           0        2.523848   -1.887053   -0.628258
     10          1           0        3.153261   -0.440369   -1.456600
     11          1           0        2.706374   -0.602085    1.492697
     12          1           0        2.696904    1.725979    1.547978
     13          1           0        4.215268    1.225758    0.749944
     14          1           0        3.154267    3.084803   -0.517089
     15          1           0        1.646156    2.191360   -0.702771
     16          1           0        3.112667    1.641977   -1.528932
     17          6           0        0.638554   -0.119227    0.313742
     18         53           0       -1.949034   -0.072039   -0.033226
     19          1           0        0.520523    0.664878    1.050956
     20          1           0        0.553367   -1.156610    0.611726
     21          1           0        0.745458    0.133111   -0.733500
 ---------------------------------------------------------------------
                    Distance matrix (angstroms):
                    1          2          3          4          5
     1  C    0.000000
     2  C    1.526098   0.000000
     3  N    2.509660   1.490633   0.000000
     4  C    3.157880   2.501408   1.495816   0.000000
     5  C    3.991707   3.098213   2.518763   1.526643   0.000000
     6  H    1.099139   2.175020   3.460095   4.137968   4.749636
     7  H    1.096481   2.191572   2.787954   3.585894   4.700553
     8  H    1.096213   2.191184   2.829337   2.925310   3.718131
     9  H    2.178527   1.116407   2.114786   3.423915   3.965187
    10  H    2.183593   1.112545   2.136825   2.681582   2.689341
    11  H    2.641347   2.075554   1.029752   2.075958   3.392974
    12  H    4.057720   3.431514   2.116348   1.115882   2.171111
    13  H    2.829847   2.745276   2.153836   1.112780   2.172708
    14  H    4.753047   4.077086   3.465521   2.170591   1.099001
    15  H    4.704187   3.538788   2.823548   2.194781   1.099359
    16  H    3.678597   2.832027   2.819265   2.195913   1.095957
    17  C    4.198082   2.802310   1.947075   2.838840   3.165277
    18  I    6.688961   5.228010   4.558241   5.268181   5.180994
    19  H    4.740530   3.489923   2.253502   2.685419   3.096561
    20  H    4.127099   2.850622   2.251635   3.505635   4.078840
    21  H    4.199014   2.690247   2.262584   2.945920   2.780903
                    6          7          8          9         10
     6  H    0.000000
     7  H    1.761148   0.000000
     8  H    1.760323   1.770897   0.000000
     9  H    2.506668   2.557184   3.108044   0.000000
    10  H    2.530216   3.111362   2.547984   1.781910   0.000000
    11  H    3.657494   2.491761   3.018484   2.486546   2.987342
    12  H    5.101022   4.267571   3.827162   4.221368   3.732133
    13  H    3.798691   3.246044   2.254177   3.801307   2.961871
    14  H    5.507277   5.449921   4.262701   5.012897   3.648222
    15  H    5.442468   5.360873   4.618610   4.172450   3.124999
    16  H    4.221734   4.574525   3.432915   3.689440   2.083997
    17  C    4.948008   4.452849   4.687614   2.750801   3.092086
    18  I    7.294464   6.922243   7.254484   4.863642   5.309903
    19  H    5.622461   4.917779   5.052967   3.653139   3.800095
    20  H    4.802443   4.185568   4.818149   2.440062   3.398591
    21  H    4.805841   4.698636   4.644975   2.693475   2.578617
                   11         12         13         14         15
    11  H    0.000000
    12  H    2.328739   0.000000
    13  H    2.483839   1.786759   0.000000
    14  H    4.222913   2.513978   2.487396   0.000000
    15  H    3.707759   2.527157   3.105335   1.762703   0.000000
    16  H    3.785648   3.106009   2.565588   1.762756   1.770599
    17  C    2.428779   3.027363   3.846055   4.157512   2.717972
    18  I    4.927698   5.226645   6.347933   6.020254   4.300773
    19  H    2.564815   2.471761   3.749178   3.905306   2.583167
    20  H    2.391453   3.712228   4.370847   5.101813   3.759121
    21  H    3.056413   3.398605   3.928621   3.815978   2.246907
                   16         17         18         19         20
    16  H    0.000000
    17  C    3.552256   0.000000
    18  I    5.549397   2.611173   0.000000
    19  H    3.785467   1.082699   2.795927   0.000000
    20  H    4.354828   1.082689   2.802547   1.873986   0.000000
    21  H    2.917716   1.082506   2.791551   1.875542   1.873476
                   21
    21  H    0.000000
 Symmetry turned off by external request.
 Stoichiometry    C5H14IN
 Framework group  C1[X(C5H14IN)]
 Deg. of freedom    57
 Full point group                 C1      NOp   1
 Rotational constants (GHZ):           2.8646344           0.3769966           0.3481107
 Leave Link  202 at Sat Dec 13 15:04:38 2025, MaxMem=   536870912 cpu:               0.0 elap:               0.1
 (Enter D:\G16W\l301.exe)
 Standard basis: VSTO-6G (5D, 7F)
 Ernie: Thresh=  0.10000D-02 Tol=  0.10000D-05 Strict=F.
 EHB=         0.000000000 Number of Hydrogen Bonds=     0
  NNHCO=     0 NNPyr=     0 NCTC=     0               EPep=         0.000000000
    EC=       166.232000538  ECS=         3.115699660   EG=         0.584297937
   EHC=         0.000555585  EAt=       -41.819221151  AtH=         2.744811147
 EPDDG=         0.000000000  ECC=       169.932553719 EAtT=        44.564032299
  EHyb=         0.000000000
    47 basis functions,   288 primitive gaussians,    48 cartesian basis functions
    23 alpha electrons       23 beta electrons
       nuclear repulsion energy       214.4965860174 Hartrees.
 IExCor=    0 DFT=F Ex=HF Corr=None ExCW=0 ScaHFX=  1.000000
 ScaDFX=  1.000000  1.000000  1.000000  1.000000 ScalE2=  1.000000  1.000000
 IRadAn=      5 IRanWt=     -1 IRanGd=            0 ICorTp=0 IEmpDi=251
 Integral buffers will be    131072 words long.
 Regular integral format.
 Two-electron integral symmetry is turned off.
 R6Disp:  PM7 Dispersion energy=       -0.0040871320 Hartrees.
 Nuclear repulsion after empirical dispersion term =      214.4924988854 Hartrees.
 Leave Link  301 at Sat Dec 13 15:04:39 2025, MaxMem=   536870912 cpu:               1.0 elap:               0.1
 (Enter D:\G16W\l302.exe)
 Do NDO integrals.
 NPDir=0 NMtPBC=     1 NCelOv=     1 NCel=       1 NClECP=     1 NCelD=      1
         NCelK=      1 NCelE2=     1 NClLst=     1 CellRange=     0.0.
 One-electron integrals computed using PRISM.
 NBasis=    47 RedAO= F EigKep=  0.00D+00  NBF=    47
 NBsUse=    47 1.00D-04 EigRej=  0.00D+00 NBFU=    47
 Leave Link  302 at Sat Dec 13 15:04:39 2025, MaxMem=   536870912 cpu:               0.0 elap:               0.2
 (Enter D:\G16W\l303.exe)
 DipDrv:  MaxL=1.
 Leave Link  303 at Sat Dec 13 15:04:39 2025, MaxMem=   536870912 cpu:               0.0 elap:               0.1
 (Enter D:\G16W\l401.exe)
 Initial guess from the checkpoint file:  ".\Gau-14396.chk"
 B after Tr=    -0.000054    0.000013    0.000008
         Rot=    1.000000    0.000015    0.000000   -0.000003 Ang=   0.00 deg.
 Guess basis will be translated and rotated to current coordinates.
 JPrj=0 DoOrth=T DoCkMO=T.
 Leave Link  401 at Sat Dec 13 15:04:39 2025, MaxMem=   536870912 cpu:               0.0 elap:               0.2
 (Enter D:\G16W\l502.exe)
 Keep J ints in memory in canonical form, NReq=1854372.
 FoFCou: FMM=F IPFlag=           0 FMFlag=           0 FMFlg1=           0
         NFxFlg=           0 DoJE=F BraDBF=F KetDBF=F FulRan=T
         wScrn=  0.000000 ICntrl=       600 IOpCl=  2 I1Cent=           0 NGrid=           0
         NMat0=    1 NMatS0=    119 NMatT0=    0 NMatD0=    1 NMtDS0=    0 NMtDT0=    0
 Symmetry not used in FoFCou.
 Two-electron integral symmetry not used.
 Closed shell SCF:
 Using DIIS extrapolation, IDIIS=  1040.
 Overlap will be assumed to be unity.
 NGot=   536870912 LenX=   536798937 LenY=   536796192
 Requested convergence on RMS density matrix=1.00D-08 within 128 cycles.
 Requested convergence on MAX density matrix=1.00D-06.
 Requested convergence on             energy=1.00D-06.
 No special actions if energy rises.

 Cycle   1  Pass 1  IDiag  1:
 E= 0.193994342789949E-01
 DIIS: error= 2.82D-03 at cycle   1 NSaved=   1.
 NSaved= 1 IEnMin= 1 EnMin= 0.193994342789949E-01 IErMin= 1 ErrMin= 2.82D-03
 ErrMax= 2.82D-03  0.00D+00 EMaxC= 1.00D-01 BMatC= 1.26D-04 BMatP= 1.26D-04
 IDIUse=3 WtCom= 9.72D-01 WtEn= 2.82D-02
 Coeff-Com:  0.100D+01
 Coeff-En:   0.100D+01
 Coeff:      0.100D+01
 GapD=    2.000 DampG=2.000 DampE=1.000 DampFc=2.0000 IDamp=-1.
 RMSDP=5.92D-04 MaxDP=8.49D-03              OVMax= 0.00D+00

 Cycle   2  Pass 1  IDiag  3:
 E= 0.188716355474128E-01 Delta-E=       -0.000527798732 Rises=F Damp=F
 DIIS: error= 1.09D-03 at cycle   2 NSaved=   2.
 NSaved= 2 IEnMin= 2 EnMin= 0.188716355474128E-01 IErMin= 2 ErrMin= 1.09D-03
 ErrMax= 1.09D-03  0.00D+00 EMaxC= 1.00D-01 BMatC= 2.00D-05 BMatP= 1.26D-04
 IDIUse=3 WtCom= 9.89D-01 WtEn= 1.09D-02
 Coeff-Com: -0.444D+00 0.144D+01
 Coeff-En:   0.000D+00 0.100D+01
 Coeff:     -0.439D+00 0.144D+01
 Gap=     0.278 Goal=   None    Shift=    0.000
 RMSDP=3.81D-04 MaxDP=5.68D-03 DE=-5.28D-04 OVMax= 8.68D-03

 Cycle   3  Pass 1  IDiag  3:
 E= 0.187478716734404E-01 Delta-E=       -0.000123763874 Rises=F Damp=F
 DIIS: error= 1.89D-04 at cycle   3 NSaved=   3.
 NSaved= 3 IEnMin= 3 EnMin= 0.187478716734404E-01 IErMin= 3 ErrMin= 1.89D-04
 ErrMax= 1.89D-04  0.00D+00 EMaxC= 1.00D-01 BMatC= 1.34D-06 BMatP= 2.00D-05
 IDIUse=3 WtCom= 9.98D-01 WtEn= 1.89D-03
 Coeff-Com:  0.432D-01-0.316D+00 0.127D+01
 Coeff-En:   0.000D+00 0.000D+00 0.100D+01
 Coeff:      0.431D-01-0.315D+00 0.127D+01
 Gap=     0.278 Goal=   None    Shift=    0.000
 RMSDP=1.19D-04 MaxDP=1.98D-03 DE=-1.24D-04 OVMax= 2.92D-03

 Cycle   4  Pass 1  IDiag  3:
 E= 0.187371635965405E-01 Delta-E=       -0.000010708077 Rises=F Damp=F
 DIIS: error= 7.12D-05 at cycle   4 NSaved=   4.
 NSaved= 4 IEnMin= 4 EnMin= 0.187371635965405E-01 IErMin= 4 ErrMin= 7.12D-05
 ErrMax= 7.12D-05  0.00D+00 EMaxC= 1.00D-01 BMatC= 1.30D-07 BMatP= 1.34D-06
 IDIUse=1 WtCom= 1.00D+00 WtEn= 0.00D+00
 Coeff-Com:  0.204D-01-0.374D-01-0.333D+00 0.135D+01
 Coeff:      0.204D-01-0.374D-01-0.333D+00 0.135D+01
 Gap=     0.279 Goal=   None    Shift=    0.000
 RMSDP=4.49D-05 MaxDP=8.25D-04 DE=-1.07D-05 OVMax= 1.19D-03

 Cycle   5  Pass 1  IDiag  3:
 E= 0.187360582791314E-01 Delta-E=       -0.000001105317 Rises=F Damp=F
 DIIS: error= 1.45D-05 at cycle   5 NSaved=   5.
[...]
 Center     Atomic                     Coordinates (Angstroms)
 Number     Number                        X           Y           Z
 ---------------------------------------------------------------------
      1          6                    4.594593   -1.420820   -0.143028
      2          6                    3.184554   -1.004007   -0.514479
      3          7                    2.566589   -0.162072    0.585959
      4          6                    3.111540    1.257536    0.622383
      5          6                    2.736176    2.079128   -0.599485
      6          1                    5.017837   -2.085616   -0.916240
      7          1                    4.644493   -1.987794    0.796299
      8          1                    5.289211   -0.574979   -0.064723
      9          1                    2.537402   -1.904374   -0.675271
     10          1                    3.163223   -0.437258   -1.473753
     11          1                    2.784365   -0.614237    1.508586
     12          1                    2.708180    1.746528    1.544167
     13          1                    4.216805    1.209618    0.737271
     14          1                    3.154694    3.095941   -0.523764
     15          1                    1.644543    2.214025   -0.708087
     16          1                    3.111413    1.659744   -1.540418
     17          6                    1.076116   -0.139232    0.396941
     18         53                   -1.993843   -0.070401   -0.040057
     19          1                    0.601696    0.585031    1.091348
     20          1                    0.643788   -1.141559    0.597475
     21          1                    0.807856    0.151668   -0.639944
 ---------------------------------------------------------------------
   CHANGE IN THE REACTION COORDINATE =    0.16624
   NET REACTION COORDINATE UP TO THIS POINT =    3.32217
  # OF POINTS ALONG THE PATH =  40
  # OF STEPS =   1

 Maximum number of steps reached.
 Calculation of REVERSE path complete.
 Reaction path calculation complete.
 
 Energies reported relative to the TS energy of           0.019477
 --------------------------------------------------------------------------
    Summary of reaction path following
 --------------------------------------------------------------------------
                        Energy    RxCoord
   1                   -0.01964  -3.32217
   2                   -0.01935  -3.15592
   3                   -0.01905  -2.98966
   4                   -0.01871  -2.82350
   5                   -0.01835  -2.65749
   6                   -0.01793  -2.49176
   7                   -0.01742  -2.32628
   8                   -0.01677  -2.16095
   9                   -0.01587  -1.99541
  10                   -0.01468  -1.82943
  11                   -0.01318  -1.66323
  12                   -0.01146  -1.49694
  13                   -0.00962  -1.33063
  14                   -0.00774  -1.16430
  15                   -0.00593  -0.99797
  16                   -0.00426  -0.83165
  17                   -0.00280  -0.66532
  18                   -0.00161  -0.49899
  19                   -0.00073  -0.33267
  20                   -0.00018  -0.16636
  21                    0.00000   0.00000
  22                   -0.00019   0.16636
  23                   -0.00074   0.33267
  24                   -0.00166   0.49899
  25                   -0.00292   0.66532
  26                   -0.00451   0.83164
  27                   -0.00639   0.99797
  28                   -0.00852   1.16430
  29                   -0.01086   1.33063
  30                   -0.01336   1.49696
  31                   -0.01598   1.66329
  32                   -0.01865   1.82963
  33                   -0.02134   1.99596
  34                   -0.02400   2.16229
  35                   -0.02656   2.32862
  36                   -0.02899   2.49496
  37                   -0.03125   2.66129
  38                   -0.03328   2.82762
  39                   -0.03504   2.99393
  40                   -0.03651   3.16021
  41                   -0.03766   3.32635
 --------------------------------------------------------------------------
 
 Total number of points:                   40
 Total number of gradient calculations:    42
 Total number of Hessian calculations:      1
 IRC-IRC-IRC-IRC-IRC-IRC-IRC-IRC-IRC-IRC-IRC-IRC-IRC-IRC-IRC-IRC-IRC-IRC
 Leave Link  123 at Sat Dec 13 15:06:52 2025, MaxMem=   536870912 cpu:               0.0 elap:               0.1
 (Enter D:\G16W\l202.exe)
                          Input orientation:                          
 ---------------------------------------------------------------------
 Center     Atomic      Atomic             Coordinates (Angstroms)
 Number     Number       Type             X           Y           Z
 ---------------------------------------------------------------------
      1          6           0        4.594482   -1.420805   -0.142974
      2          6           0        3.184445   -1.004013   -0.514547
      3          7           0        2.566810   -0.162233    0.586187
      4          6           0        3.111418    1.257525    0.622328
      5          6           0        2.736093    2.079159   -0.599539
      6          1           0        5.017856   -2.085635   -0.916026
      7          1           0        4.644232   -1.987680    0.796439
      8          1           0        5.289015   -0.574892   -0.064598
      9          1           0        2.537381   -1.904416   -0.675677
     10          1           0        3.163155   -0.437172   -1.473775
     11          1           0        2.786155   -0.614349    1.508804
     12          1           0        2.708148    1.746637    1.544085
     13          1           0        4.216741    1.209473    0.737094
     14          1           0        3.154703    3.095964   -0.523781
     15          1           0        1.644480    2.214288   -0.708213
     16          1           0        3.111339    1.659882   -1.540524
     17          6           0        1.075532   -0.139147    0.396789
     18         53           0       -1.993846   -0.070398   -0.040064
     19          1           0        0.603057    0.584535    1.091766
     20          1           0        0.645407   -1.141455    0.597432
     21          1           0        0.808757    0.151950   -0.639572
 ---------------------------------------------------------------------
                    Distance matrix (angstroms):
                    1          2          3          4          5
     1  C    0.000000
     2  C    1.516570   0.000000
     3  N    2.495422   1.517130   0.000000
     4  C    3.155728   2.532267   1.521058   0.000000
     5  C    3.988961   3.116761   2.541346   1.519510   0.000000
     6  H    1.104017   2.166214   3.458865   4.144606   4.759424
     7  H    1.098326   2.194826   2.773471   3.593215   4.704140
     8  H    1.097310   2.194496   2.829171   2.927721   3.721231
     9  H    2.179293   1.120438   2.151365   3.465863   3.989255
    10  H    2.187981   1.114397   2.162097   2.695984   2.697888
    11  H    2.578525   2.098672   1.050592   2.096556   3.420907
    12  H    4.054270   3.468559   2.140404   1.118701   2.169441
    13  H    2.799209   2.744405   2.150958   1.112304   2.176065
    14  H    4.755963   4.100096   3.491919   2.166864   1.102209
    15  H    4.715496   3.573019   2.859024   2.199464   1.105301
    16  H    3.693709   2.855576   2.852984   2.199960   1.096384
    17  C    3.783781   2.454800   1.503435   2.479192   2.944658
    18  I    6.726087   5.283131   4.604369   5.316565   5.225508
    19  H    4.634376   3.430348   2.160925   2.639159   3.105520
    20  H    4.027583   2.775266   2.156570   3.440485   4.021948
    21  H    4.129392   2.644953   2.166091   2.849024   2.725870
                    6          7          8          9         10
     6  H    0.000000
     7  H    1.755485   0.000000
     8  H    1.755221   1.775698   0.000000
     9  H    2.498673   2.571552   3.116496   0.000000
    10  H    2.543311   3.122745   2.554218   1.783636   0.000000
    11  H    3.609013   2.417840   2.956596   2.549141   3.011528
    12  H    5.106192   4.272296   3.825994   4.276294   3.752804
    13  H    3.772576   3.226152   2.230794   3.809525   2.951174
    14  H    5.520341   5.459407   4.270986   5.040631   3.658636
    15  H    5.469204   5.377641   4.634264   4.214505   3.150032
    16  H    4.248965   4.595200   3.451789   3.712359   2.098756
    17  C    4.588487   4.038863   4.261008   2.530486   2.818864
    18  I    7.347956   6.959870   7.300355   4.929467   5.365138
    19  H    5.536378   4.799437   4.963834   3.613909   3.765632
    20  H    4.722324   4.092225   4.724656   2.404679   3.335411
    21  H    4.774906   4.620716   4.575108   2.686649   2.566350
                   11         12         13         14         15
    11  H    0.000000
    12  H    2.362537   0.000000
    13  H    2.443039   1.793218   0.000000
    14  H    4.246605   2.509217   2.505310   0.000000
    15  H    3.770912   2.534351   3.116904   1.758449   0.000000
    16  H    3.817889   3.112058   2.571445   1.760108   1.775327
    17  C    2.094905   2.745524   3.435371   3.954282   2.661463
    18  I    5.054037   5.283928   6.388540   6.063612   4.347830
    19  H    2.525304   2.446729   3.684433   3.927870   2.642078
    20  H    2.385633   3.673163   4.277943   5.050684   3.736825
    21  H    3.018748   3.304402   3.824647   3.766178   2.226294
                   16         17         18         19         20
    16  H    0.000000
    17  C    3.336794   0.000000
    18  I    5.595370   3.101072   0.000000
    19  H    3.791675   1.109027   2.907556   0.000000
    20  H    4.301065   1.109003   2.918770   1.795884   0.000000
    21  H    2.896111   1.109031   2.874618   1.796378   1.797152
                   21
    21  H    0.000000
 Symmetry turned off by external request.
 Stoichiometry    C5H14IN
 Framework group  C1[X(C5H14IN)]
 Deg. of freedom    57
 Full point group                 C1      NOp   1
 Rotational constants (GHZ):           2.8287290           0.3676963           0.3401849
 Leave Link  202 at Sat Dec 13 15:06:52 2025, MaxMem=   536870912 cpu:               0.0 elap:               0.1
 (Enter D:\G16W\l601.exe)
 Copying SCF densities to generalized density rwf, IOpCl= 0 IROHF=0.

 **********************************************************************

            Population analysis using the SCF density.

 **********************************************************************

 Alpha  occ. eigenvalues --   -1.46221  -1.07129  -1.05447  -0.95716  -0.89191
 Alpha  occ. eigenvalues --   -0.82644  -0.75182  -0.70284  -0.67978  -0.65042
 Alpha  occ. eigenvalues --   -0.63213  -0.61220  -0.58002  -0.56360  -0.56052
 Alpha  occ. eigenvalues --   -0.54170  -0.53342  -0.52434  -0.52208  -0.50982
 Alpha  occ. eigenvalues --   -0.25256  -0.25150  -0.25142
 Alpha virt. eigenvalues --   -0.03166   0.04054   0.04915   0.06545   0.07052
 Alpha virt. eigenvalues --    0.09810   0.10808   0.11297   0.12806   0.12890
 Alpha virt. eigenvalues --    0.13624   0.13789   0.14848   0.15332   0.15777
 Alpha virt. eigenvalues --    0.15948   0.17861   0.19075   0.19717   4.97317
 Alpha virt. eigenvalues --    4.97330   4.97380   4.97862   4.97863
          Condensed to atoms (all electrons):
               1          2          3          4          5          6
     1  C    4.483090   0.000000   0.000000   0.000000   0.000000   0.000000
     2  C    0.000000   4.146710   0.000000   0.000000   0.000000   0.000000
     3  N    0.000000   0.000000   5.098442   0.000000   0.000000   0.000000
     4  C    0.000000   0.000000   0.000000   4.146682   0.000000   0.000000
     5  C    0.000000   0.000000   0.000000   0.000000   4.462680   0.000000
     6  H    0.000000   0.000000   0.000000   0.000000   0.000000   0.816371
     7  H    0.000000   0.000000   0.000000   0.000000   0.000000   0.000000
     8  H    0.000000   0.000000   0.000000   0.000000   0.000000   0.000000
     9  H    0.000000   0.000000   0.000000   0.000000   0.000000   0.000000
    10  H    0.000000   0.000000   0.000000   0.000000   0.000000   0.000000
    11  H    0.000000   0.000000   0.000000   0.000000   0.000000   0.000000
    12  H    0.000000   0.000000   0.000000   0.000000   0.000000   0.000000
    13  H    0.000000   0.000000   0.000000   0.000000   0.000000   0.000000
    14  H    0.000000   0.000000   0.000000   0.000000   0.000000   0.000000
    15  H    0.000000   0.000000   0.000000   0.000000   0.000000   0.000000
    16  H    0.000000   0.000000   0.000000   0.000000   0.000000   0.000000
    17  C    0.000000   0.000000   0.000000   0.000000   0.000000   0.000000
    18  I    0.000000   0.000000   0.000000   0.000000   0.000000   0.000000
    19  H    0.000000   0.000000   0.000000   0.000000   0.000000   0.000000
    20  H    0.000000   0.000000   0.000000   0.000000   0.000000   0.000000
    21  H    0.000000   0.000000   0.000000   0.000000   0.000000   0.000000
               7          8          9         10         11         12
     1  C    0.000000   0.000000   0.000000   0.000000   0.000000   0.000000
     2  C    0.000000   0.000000   0.000000   0.000000   0.000000   0.000000
     3  N    0.000000   0.000000   0.000000   0.000000   0.000000   0.000000
     4  C    0.000000   0.000000   0.000000   0.000000   0.000000   0.000000
     5  C    0.000000   0.000000   0.000000   0.000000   0.000000   0.000000
     6  H    0.000000   0.000000   0.000000   0.000000   0.000000   0.000000
     7  H    0.836768   0.000000   0.000000   0.000000   0.000000   0.000000
     8  H    0.000000   0.840683   0.000000   0.000000   0.000000   0.000000
     9  H    0.000000   0.000000   0.811561   0.000000   0.000000   0.000000
    10  H    0.000000   0.000000   0.000000   0.820621   0.000000   0.000000
    11  H    0.000000   0.000000   0.000000   0.000000   0.713613   0.000000
    12  H    0.000000   0.000000   0.000000   0.000000   0.000000   0.825386
    13  H    0.000000   0.000000   0.000000   0.000000   0.000000   0.000000
    14  H    0.000000   0.000000   0.000000   0.000000   0.000000   0.000000
    15  H    0.000000   0.000000   0.000000   0.000000   0.000000   0.000000
    16  H    0.000000   0.000000   0.000000   0.000000   0.000000   0.000000
    17  C    0.000000   0.000000   0.000000   0.000000   0.000000   0.000000
    18  I    0.000000   0.000000   0.000000   0.000000   0.000000   0.000000
    19  H    0.000000   0.000000   0.000000   0.000000   0.000000   0.000000
    20  H    0.000000   0.000000   0.000000   0.000000   0.000000   0.000000
    21  H    0.000000   0.000000   0.000000   0.000000   0.000000   0.000000
              13         14         15         16         17         18
     1  C    0.000000   0.000000   0.000000   0.000000   0.000000   0.000000
     2  C    0.000000   0.000000   0.000000   0.000000   0.000000   0.000000
     3  N    0.000000   0.000000   0.000000   0.000000   0.000000   0.000000
     4  C    0.000000   0.000000   0.000000   0.000000   0.000000   0.000000
     5  C    0.000000   0.000000   0.000000   0.000000   0.000000   0.000000
     6  H    0.000000   0.000000   0.000000   0.000000   0.000000   0.000000
     7  H    0.000000   0.000000   0.000000   0.000000   0.000000   0.000000
     8  H    0.000000   0.000000   0.000000   0.000000   0.000000   0.000000
     9  H    0.000000   0.000000   0.000000   0.000000   0.000000   0.000000
    10  H    0.000000   0.000000   0.000000   0.000000   0.000000   0.000000
    11  H    0.000000   0.000000   0.000000   0.000000   0.000000   0.000000
    12  H    0.000000   0.000000   0.000000   0.000000   0.000000   0.000000
    13  H    0.847559   0.000000   0.000000   0.000000   0.000000   0.000000
    14  H    0.000000   0.824696   0.000000   0.000000   0.000000   0.000000
    15  H    0.000000   0.000000   0.802741   0.000000   0.000000   0.000000
    16  H    0.000000   0.000000   0.000000   0.840564   0.000000   0.000000
    17  C    0.000000   0.000000   0.000000   0.000000   4.331173   0.000000
    18  I    0.000000   0.000000   0.000000   0.000000   0.000000   7.974956
    19  H    0.000000   0.000000   0.000000   0.000000   0.000000   0.000000
    20  H    0.000000   0.000000   0.000000   0.000000   0.000000   0.000000
    21  H    0.000000   0.000000   0.000000   0.000000   0.000000   0.000000
              19         20         21
     1  C    0.000000   0.000000   0.000000
     2  C    0.000000   0.000000   0.000000
     3  N    0.000000   0.000000   0.000000
     4  C    0.000000   0.000000   0.000000
     5  C    0.000000   0.000000   0.000000
     6  H    0.000000   0.000000   0.000000
     7  H    0.000000   0.000000   0.000000
     8  H    0.000000   0.000000   0.000000
     9  H    0.000000   0.000000   0.000000
    10  H    0.000000   0.000000   0.000000
    11  H    0.000000   0.000000   0.000000
    12  H    0.000000   0.000000   0.000000
    13  H    0.000000   0.000000   0.000000
    14  H    0.000000   0.000000   0.000000
    15  H    0.000000   0.000000   0.000000
    16  H    0.000000   0.000000   0.000000
    17  C    0.000000   0.000000   0.000000
    18  I    0.000000   0.000000   0.000000
    19  H    0.791456   0.000000   0.000000
    20  H    0.000000   0.795206   0.000000
    21  H    0.000000   0.000000   0.789041
 Mulliken charges:
               1
     1  C   -0.483090
     2  C   -0.146710
     3  N   -0.098442
     4  C   -0.146682
     5  C   -0.462680
     6  H    0.183629
     7  H    0.163232
     8  H    0.159317
     9  H    0.188439
    10  H    0.179379
    11  H    0.286387
    12  H    0.174614
    13  H    0.152441
    14  H    0.175304
    15  H    0.197259
    16  H    0.159436
    17  C   -0.331173
    18  I   -0.974956
    19  H    0.208544
    20  H    0.204794
    21  H    0.210959
 Sum of Mulliken charges =   0.00000
 Mulliken charges with hydrogens summed into heavy atoms:
               1
     1  C    0.023088
     2  C    0.221107
     3  N    0.187945
     4  C    0.180373
     5  C    0.069320
    17  C    0.293124
    18  I   -0.974956
 APT charges:
               1
     1  C   -0.483090
     2  C   -0.146710
     3  N   -0.098442
     4  C   -0.146682
     5  C   -0.462680
     6  H    0.183629
     7  H    0.163232
     8  H    0.159317
     9  H    0.188439
    10  H    0.179379
    11  H    0.286387
    12  H    0.174614
    13  H    0.152441
    14  H    0.175304
    15  H    0.197259
    16  H    0.159436
    17  C   -0.331173
    18  I   -0.974956
    19  H    0.208544
    20  H    0.204794
    21  H    0.210959
 Sum of APT charges =   0.00000
 APT charges with hydrogens summed into heavy atoms:
               1
     1  C    0.023088
     2  C    0.221107
     3  N    0.187945
     4  C    0.180373
     5  C    0.069320
    17  C    0.293124
    18  I   -0.974956
 Charge=              0.0000 electrons
 Dipole moment (field-independent basis, Debye):
    X=             20.5556    Y=              0.0825    Z=              1.8011  Tot=             20.6345
 N-N= 2.160330362177D+02 E-N=-3.297743764083D+02  KE=-7.152471738613D+01
  Exact polarizability:   0.000   0.000   0.000   0.000   0.000   0.000
 Approx polarizability:  41.505  -0.267  32.030   0.702   0.646  28.802
 Leave Link  601 at Sat Dec 13 15:06:52 2025, MaxMem=   536870912 cpu:               0.0 elap:               0.1
 (Enter D:\G16W\l9999.exe)

 This type of calculation cannot be archived.


 REVOLUTIONS HAVE NEVER LIGHTENED THE BURDEN OF TYRANNY:
 THEY HAVE MERELY SHIFTED IT TO OTHER SHOULDERS.
                                   -- G. B. SHAW (1903)
 Job cpu time:       0 days  0 hours  2 minutes 22.0 seconds.
 Elapsed time:       0 days  0 hours  1 minutes 46.3 seconds.
 File lengths (MBytes):  RWF=     22 Int=      0 D2E=      0 Chk=      5 Scr=      1
 Normal termination of Gaussian 16 at Sat Dec 13 15:06:53 2025.
