 Entering Gaussian System, Link 0=g16.exe
 Input=EtNH2_Fine_ts.gjf
 Output=EtNH2_Fine_ts.log
 Initial command:
 D:\G16W\l1.exe ".\Gau-2800.inp" "EtNH2_Fine_ts.log" /scrdir=".\"
 Entering Link 1 = D:\G16W\l1.exe PID=     15564.
  
 Copyright (c) 1988,1990,1992,1993,1995,1998,2003,2009,2016,
            Gaussian, Inc.  All Rights Reserved.
  
 This is part of the Gaussian(R) 16 program.  It is based on
 the Gaussian(R) 09 system (copyright 2009, Gaussian, Inc.),
 the Gaussian(R) 03 system (copyright 2003, Gaussian, Inc.),
 the Gaussian(R) 98 system (copyright 1998, Gaussian, Inc.),
 the Gaussian(R) 94 system (copyright 1995, Gaussian, Inc.),
 the Gaussian 92(TM) system (copyright 1992, Gaussian, Inc.),
 the Gaussian 90(TM) system (copyright 1990, Gaussian, Inc.),
 the Gaussian 88(TM) system (copyright 1988, Gaussian, Inc.),
 the Gaussian 86(TM) system (copyright 1986, Carnegie Mellon
 University), and the Gaussian 82(TM) system (copyright 1983,
 Carnegie Mellon University). Gaussian is a federally registered
 trademark of Gaussian, Inc.
  
 This software contains proprietary and confidential information,
 including trade secrets, belonging to Gaussian, Inc.
  
 This software is provided under written license and may be
 used, copied, transmitted, or stored only in accord with that
 written license.
  
 The following legend is applicable only to US Government
 contracts under FAR:
  
                    RESTRICTED RIGHTS LEGEND
  
 Use, reproduction and disclosure by the US Government is
 subject to restrictions as set forth in subparagraphs (a)
 and (c) of the Commercial Computer Software - Restricted
 Rights clause in FAR 52.227-19.
  
 Gaussian, Inc.
 340 Quinnipiac St., Bldg. 40, Wallingford CT 06492
  
  
 ---------------------------------------------------------------
 Warning -- This program may not be used in any manner that
 competes with the business of Gaussian, Inc. or will provide
 assistance to any competitor of Gaussian, Inc.  The licensee
 of this program is prohibited from giving any competitor of
 Gaussian, Inc. access to this program.  By using this program,
 the user acknowledges that Gaussian, Inc. is engaged in the
 business of creating and licensing software in the field of
 computational chemistry and represents and warrants to the
 licensee that it is not a competitor of Gaussian, Inc. and that
 it will not use this program in any manner prohibited above.
 ---------------------------------------------------------------
  

 Cite this work as:
 Gaussian 16, Revision A.03,
 M. J. Frisch, G. W. Trucks, H. B. Schlegel, G. E. Scuseria, 
 M. A. Robb, J. R. Cheeseman, G. Scalmani, V. Barone, 
 G. A. Petersson, H. Nakatsuji, X. Li, M. Caricato, A. V. Marenich, 
 J. Bloino, B. G. Janesko, R. Gomperts, B. Mennucci, H. P. Hratchian, 
 J. V. Ortiz, A. F. Izmaylov, J. L. Sonnenberg, D. Williams-Young, 
 F. Ding, F. Lipparini, F. Egidi, J. Goings, B. Peng, A. Petrone, 
 T. Henderson, D. Ranasinghe, V. G. Zakrzewski, J. Gao, N. Rega, 
 G. Zheng, W. Liang, M. Hada, M. Ehara, K. Toyota, R. Fukuda, 
 J. Hasegawa, M. Ishida, T. Nakajima, Y. Honda, O. Kitao, H. Nakai, 
 T. Vreven, K. Throssell, J. A. Montgomery, Jr., J. E. Peralta, 
 F. Ogliaro, M. J. Bearpark, J. J. Heyd, E. N. Brothers, K. N. Kudin, 
 V. N. Staroverov, T. A. Keith, R. Kobayashi, J. Normand, 
 K. Raghavachari, A. P. Rendell, J. C. Burant, S. S. Iyengar, 
 J. Tomasi, M. Cossi, J. M. Millam, M. Klene, C. Adamo, R. Cammi, 
 J. W. Ochterski, R. L. Martin, K. Morokuma, O. Farkas, 
 J. B. Foresman, and D. J. Fox, Gaussian, Inc., Wallingford CT, 2016.
 
 ******************************************
 Gaussian 16:  EM64W-G16RevA.03 17-Dec-2016
                13-Dec-2025 
 ******************************************
 %nproc=6
 Will use up to    6 processors via shared memory.
 %mem=4GB
 -------------------------------
 #PM7 opt(ts,calcall,noeig) freq
 -------------------------------
 1/5=1,10=4,11=1,18=20,26=1,38=1/1,3;
 2/9=110,12=2,17=6,18=5,40=1/2;
 3/5=2,25=1,41=4200000,71=2,140=1/1,2,3;
 4/35=1/1;
 5/5=2,35=1,38=5/2;
 8/6=4,10=90,11=11/1;
 11/6=1,8=1,9=11,15=111,16=1/1,2,10;
 10/6=1/2;
 6/7=2,8=2,9=2,10=2,18=1,28=1/1;
 7/10=1,25=1/1,2,3,16;
 1/5=1,10=4,11=1,18=20,26=1/3(3);
 2/9=110/2;
 7/8=1,9=1,25=1,44=-1/16;
 99//99;
 2/9=110/2;
 3/5=2,25=1,41=4200000,71=2,135=20,140=1/1,2,3;
 4/5=5,16=3,35=1/1;
 5/5=2,35=1,38=5/2;
 8/6=4,10=90,11=11/1;
 11/6=1,8=1,9=11,15=111,16=1/1,2,10;
 10/6=1/2;
 7/10=1,25=1/1,2,3,16;
 1/5=1,10=4,11=1,18=20,26=1/3(-8);
 2/9=110/2;
 6/7=2,8=2,9=2,10=2,18=1,19=2,28=1/1;
 7/8=1,9=1,25=1,44=-1/16;
 99//99;
 Leave Link    1 at Sat Dec 13 12:49:22 2025, MaxMem=   536870912 cpu:               0.0 elap:               0.1
 (Enter D:\G16W\l101.exe)
 --------------------
 title: EtNH2_Fine_TS
 --------------------
 Symbolic Z-matrix:
 Charge =  0 Multiplicity = 1
 C                    -4.85433   0.30533  -0.00008 
 C                    -3.34887   0.53421   0.00008 
 N                    -2.59671  -0.76036   0.00001 
 H                    -5.1984   -0.24392   0.88514 
 H                    -5.39651   1.26375   0.00183 
 H                    -5.19866  -0.24059  -0.88726 
 H                    -3.03691   1.12544  -0.8929 
 H                    -3.03705   1.12525   0.89321 
 H                    -2.81506  -1.31549  -0.82728 
 H                    -2.81522  -1.31572   0.82706 
 C                    -0.78714  -0.42716   0.00007 
 I                     1.91675   0.06912  -0.00001 
 H                    -0.75164   0.12646   0.93332 
 H                    -0.75133   0.1253   -0.93388 
 H                    -0.46782  -1.46544   0.00069 
 
 Add virtual bond connecting atoms C11        and N3         Dist= 3.48D+00.
 Add virtual bond connecting atoms I12        and C11        Dist= 5.19D+00.
 Add virtual bond connecting atoms I12        and H13        Dist= 5.34D+00.
 Add virtual bond connecting atoms I12        and H14        Dist= 5.34D+00.
 Add virtual bond connecting atoms I12        and H15        Dist= 5.36D+00.
 Add atom     12 valence  4 ND=      0 dihedral      11     12     13     14
 Add atom     12 valence  4 ND=      0 dihedral      11     12     13     15
 Add atom     12 valence  4 ND=      0 dihedral      11     12     14     15
 ITRead=  0  0  0  0  0  0  0  0  0  0  0  0  0  0  0
 MicOpt= -1 -1 -1 -1 -1 -1 -1 -1 -1 -1 -1 -1 -1 -1 -1
 NAtoms=     15 NQM=       15 NQMF=       0 NMMI=      0 NMMIF=      0
                NMic=       0 NMicF=      0.
                    Isotopes and Nuclear Properties:
 (Nuclear quadrupole moments (NQMom) in fm**2, nuclear magnetic moments (NMagM)
  in nuclear magnetons)

  Atom         1           2           3           4           5           6           7           8           9          10
 IAtWgt=          12          12          14           1           1           1           1           1           1           1
 AtmWgt=  12.0000000  12.0000000  14.0030740   1.0078250   1.0078250   1.0078250   1.0078250   1.0078250   1.0078250   1.0078250
 NucSpn=           0           0           2           1           1           1           1           1           1           1
 AtZEff=   0.0000000   0.0000000   0.0000000   0.0000000   0.0000000   0.0000000   0.0000000   0.0000000   0.0000000   0.0000000
 NQMom=    0.0000000   0.0000000   2.0440000   0.0000000   0.0000000   0.0000000   0.0000000   0.0000000   0.0000000   0.0000000
 NMagM=    0.0000000   0.0000000   0.4037610   2.7928460   2.7928460   2.7928460   2.7928460   2.7928460   2.7928460   2.7928460
 AtZNuc=   6.0000000   6.0000000   7.0000000   1.0000000   1.0000000   1.0000000   1.0000000   1.0000000   1.0000000   1.0000000

  Atom        11          12          13          14          15
 IAtWgt=          12         127           1           1           1
 AtmWgt=  12.0000000 126.9004000   1.0078250   1.0078250   1.0078250
 NucSpn=           0           5           1           1           1
 AtZEff=   0.0000000   0.0000000   0.0000000   0.0000000   0.0000000
 NQMom=    0.0000000 -71.0000000   0.0000000   0.0000000   0.0000000
 NMagM=    0.0000000   2.8132800   2.7928460   2.7928460   2.7928460
 AtZNuc=   6.0000000  53.0000000   1.0000000   1.0000000   1.0000000
 Leave Link  101 at Sat Dec 13 12:49:22 2025, MaxMem=   536870912 cpu:               0.0 elap:               0.2
 (Enter D:\G16W\l103.exe)

 GradGradGradGradGradGradGradGradGradGradGradGradGradGradGradGradGradGrad
 Berny optimization.
 Initialization pass.
                           ----------------------------
                           !    Initial Parameters    !
                           ! (Angstroms and Degrees)  !
 --------------------------                            --------------------------
 ! Name  Definition              Value          Derivative Info.                !
 --------------------------------------------------------------------------------
 ! R1    R(1,2)                  1.5228         calculate D2E/DX2 analytically  !
 ! R2    R(1,4)                  1.0971         calculate D2E/DX2 analytically  !
 ! R3    R(1,5)                  1.1012         calculate D2E/DX2 analytically  !
 ! R4    R(1,6)                  1.0971         calculate D2E/DX2 analytically  !
 ! R5    R(2,3)                  1.4972         calculate D2E/DX2 analytically  !
 ! R6    R(2,7)                  1.1155         calculate D2E/DX2 analytically  !
 ! R7    R(2,8)                  1.1155         calculate D2E/DX2 analytically  !
 ! R8    R(3,9)                  1.0199         calculate D2E/DX2 analytically  !
 ! R9    R(3,10)                 1.0199         calculate D2E/DX2 analytically  !
 ! R10   R(3,11)                 1.84           calculate D2E/DX2 analytically  !
 ! R11   R(11,12)                2.7491         calculate D2E/DX2 analytically  !
 ! R12   R(11,13)                1.0857         calculate D2E/DX2 analytically  !
 ! R13   R(11,14)                1.0857         calculate D2E/DX2 analytically  !
 ! R14   R(11,15)                1.0863         calculate D2E/DX2 analytically  !
 ! R15   R(12,13)                2.8275         calculate D2E/DX2 analytically  !
 ! R16   R(12,14)                2.8274         calculate D2E/DX2 analytically  !
 ! R17   R(12,15)                2.8357         calculate D2E/DX2 analytically  !
 ! A1    A(2,1,4)              112.6572         calculate D2E/DX2 analytically  !
 ! A2    A(2,1,5)              110.8516         calculate D2E/DX2 analytically  !
 ! A3    A(2,1,6)              112.6536         calculate D2E/DX2 analytically  !
 ! A4    A(4,1,5)              106.2557         calculate D2E/DX2 analytically  !
 ! A5    A(4,1,6)              107.754          calculate D2E/DX2 analytically  !
 ! A6    A(5,1,6)              106.2579         calculate D2E/DX2 analytically  !
 ! A7    A(1,2,3)              111.5121         calculate D2E/DX2 analytically  !
 ! A8    A(1,2,7)              110.8596         calculate D2E/DX2 analytically  !
 ! A9    A(1,2,8)              110.8604         calculate D2E/DX2 analytically  !
 ! A10   A(3,2,7)              108.5271         calculate D2E/DX2 analytically  !
 ! A11   A(3,2,8)              108.5266         calculate D2E/DX2 analytically  !
 ! A12   A(7,2,8)              106.3773         calculate D2E/DX2 analytically  !
 ! A13   A(2,3,9)              111.2913         calculate D2E/DX2 analytically  !
 ! A14   A(2,3,10)             111.2944         calculate D2E/DX2 analytically  !
 ! A15   A(2,3,11)             109.7239         calculate D2E/DX2 analytically  !
 ! A16   A(9,3,10)             108.3916         calculate D2E/DX2 analytically  !
 ! A17   A(9,3,11)             108.0065         calculate D2E/DX2 analytically  !
 ! A18   A(10,3,11)            108.0162         calculate D2E/DX2 analytically  !
 ! A19   A(3,11,13)             97.1533         calculate D2E/DX2 analytically  !
 ! A20   A(3,11,14)             97.1548         calculate D2E/DX2 analytically  !
 ! A21   A(3,11,15)             96.662          calculate D2E/DX2 analytically  !
 ! A22   A(13,11,14)           118.6132         calculate D2E/DX2 analytically  !
 ! A23   A(13,11,15)           118.5086         calculate D2E/DX2 analytically  !
 ! A24   A(14,11,15)           118.5004         calculate D2E/DX2 analytically  !
 ! A25   A(13,12,14)            38.5611         calculate D2E/DX2 analytically  !
 ! A26   A(13,12,15)            38.4909         calculate D2E/DX2 analytically  !
 ! A27   A(14,12,15)            38.4904         calculate D2E/DX2 analytically  !
 ! A28   L(3,11,12,13,-1)      180.0193         calculate D2E/DX2 analytically  !
 ! A29   L(3,11,12,13,-2)      179.9731         calculate D2E/DX2 analytically  !
 ! D1    D(4,1,2,3)             60.9762         calculate D2E/DX2 analytically  !
 ! D2    D(4,1,2,7)           -177.9797         calculate D2E/DX2 analytically  !
 ! D3    D(4,1,2,8)            -60.0677         calculate D2E/DX2 analytically  !
 ! D4    D(5,1,2,3)            179.8965         calculate D2E/DX2 analytically  !
 ! D5    D(5,1,2,7)            -59.0595         calculate D2E/DX2 analytically  !
 ! D6    D(5,1,2,8)             58.8525         calculate D2E/DX2 analytically  !
 ! D7    D(6,1,2,3)            -61.183          calculate D2E/DX2 analytically  !
 ! D8    D(6,1,2,7)             59.861          calculate D2E/DX2 analytically  !
 ! D9    D(6,1,2,8)            177.773          calculate D2E/DX2 analytically  !
 ! D10   D(1,2,3,9)             60.5124         calculate D2E/DX2 analytically  !
 ! D11   D(1,2,3,10)           -60.5072         calculate D2E/DX2 analytically  !
 ! D12   D(1,2,3,11)           179.9956         calculate D2E/DX2 analytically  !
 ! D13   D(7,2,3,9)            -61.8824         calculate D2E/DX2 analytically  !
 ! D14   D(7,2,3,10)           177.0979         calculate D2E/DX2 analytically  !
 ! D15   D(7,2,3,11)            57.6008         calculate D2E/DX2 analytically  !
 ! D16   D(8,2,3,9)           -177.092          calculate D2E/DX2 analytically  !
 ! D17   D(8,2,3,10)            61.8883         calculate D2E/DX2 analytically  !
 ! D18   D(8,2,3,11)           -57.6088         calculate D2E/DX2 analytically  !
 ! D19   D(2,3,11,13)           60.0322         calculate D2E/DX2 analytically  !
 ! D20   D(2,3,11,14)          -60.113          calculate D2E/DX2 analytically  !
 ! D21   D(2,3,11,15)          179.9637         calculate D2E/DX2 analytically  !
 ! D22   D(9,3,11,13)         -178.4916         calculate D2E/DX2 analytically  !
 ! D23   D(9,3,11,14)           61.3632         calculate D2E/DX2 analytically  !
 ! D24   D(9,3,11,15)          -58.5601         calculate D2E/DX2 analytically  !
 ! D25   D(10,3,11,13)         -61.4538         calculate D2E/DX2 analytically  !
 ! D26   D(10,3,11,14)         178.4011         calculate D2E/DX2 analytically  !
 ! D27   D(10,3,11,15)          58.4777         calculate D2E/DX2 analytically  !
 ! D28   D(11,12,13,14)        -31.912          calculate D2E/DX2 analytically  !
 ! D29   D(11,12,13,15)         31.9883         calculate D2E/DX2 analytically  !
 ! D30   D(11,12,14,15)        -31.9912         calculate D2E/DX2 analytically  !
 --------------------------------------------------------------------------------
 Trust Radius=3.00D-01 FncErr=1.00D-07 GrdErr=1.00D-07 EigMax=2.50D+02 EigMin=1.00D-04
 Number of steps in this run=     86 maximum allowed number of steps=    100.
 Search for a saddle point of order  1.
 GradGradGradGradGradGradGradGradGradGradGradGradGradGradGradGradGradGrad

 Leave Link  103 at Sat Dec 13 12:49:22 2025, MaxMem=   536870912 cpu:               0.0 elap:               0.1
 (Enter D:\G16W\l202.exe)
                          Input orientation:                          
 ---------------------------------------------------------------------
 Center     Atomic      Atomic             Coordinates (Angstroms)
 Number     Number       Type             X           Y           Z
 ---------------------------------------------------------------------
      1          6           0       -4.854330    0.305325   -0.000077
      2          6           0       -3.348874    0.534213    0.000076
      3          7           0       -2.596714   -0.760359    0.000011
      4          1           0       -5.198397   -0.243918    0.885137
      5          1           0       -5.396506    1.263750    0.001832
      6          1           0       -5.198662   -0.240586   -0.887259
      7          1           0       -3.036911    1.125441   -0.892903
      8          1           0       -3.037053    1.125254    0.893214
      9          1           0       -2.815055   -1.315494   -0.827275
     10          1           0       -2.815221   -1.315718    0.827059
     11          6           0       -0.787137   -0.427157    0.000068
     12         53           0        1.916748    0.069117   -0.000008
     13          1           0       -0.751638    0.126463    0.933316
     14          1           0       -0.751334    0.125295   -0.933878
     15          1           0       -0.467815   -1.465439    0.000694
 ---------------------------------------------------------------------
                    Distance matrix (angstroms):
                    1          2          3          4          5
     1  C    0.000000
     2  C    1.522757   0.000000
     3  N    2.496500   1.497218   0.000000
     4  H    1.097112   2.193070   2.796232   0.000000
     5  H    1.101153   2.173712   3.454831   1.758561   0.000000
     6  H    1.097121   2.193033   2.797775   1.772399   1.758594
     7  H    2.184660   1.115474   2.132442   3.115861   2.527324
     8  H    2.184662   1.115463   2.132427   2.558536   2.526017
     9  H    2.733122   2.095445   1.019926   3.124252   3.742166
    10  H    2.733112   2.095455   1.019891   2.613744   3.741348
    11  C    4.132625   2.736189   1.839998   4.502903   4.909730
    12  I    6.775197   5.286122   4.589049   7.176821   7.410185
    13  H    4.211329   2.789773   2.249848   4.462417   4.871949
    14  H    4.211766   2.790466   2.249880   4.818869   4.873321
    15  H    4.730446   3.507009   2.242621   4.965154   5.633868
                    6          7          8          9         10
     6  H    0.000000
     7  H    2.557192   0.000000
     8  H    3.115791   1.786117   0.000000
     9  H    2.615456   2.451875   2.994431   0.000000
    10  H    3.126593   2.994440   2.451924   1.654334   0.000000
    11  C    4.503744   2.875664   2.875728   2.363491   2.363595
    12  I    7.177199   5.143133   5.143288   4.999148   4.999334
    13  H    4.819257   3.091198   2.494457   3.071907   2.519832
    14  H    4.462597   2.495162   3.092361   2.519163   3.071978
    15  H    4.966854   3.756518   3.756230   2.493502   2.493113
                   11         12         13         14         15
    11  C    0.000000
    12  I    2.749051   0.000000
    13  H    1.085683   2.827484   0.000000
    14  H    1.085698   2.827354   1.867194   0.000000
    15  H    1.086276   2.835666   1.866679   1.866613   0.000000
 Stoichiometry    C3H10IN
 Framework group  C1[X(C3H10IN)]
 Deg. of freedom    39
 Full point group                 C1      NOp   1
 Largest Abelian subgroup         C1      NOp   1
 Largest concise Abelian subgroup C1      NOp   1
                         Standard orientation:                         
 ---------------------------------------------------------------------
 Center     Atomic      Atomic             Coordinates (Angstroms)
 Number     Number       Type             X           Y           Z
 ---------------------------------------------------------------------
      1          6           0       -4.854330   -0.305325    0.000077
      2          6           0       -3.348874   -0.534213   -0.000076
      3          7           0       -2.596714    0.760359   -0.000011
      4          1           0       -5.198397    0.243918   -0.885137
      5          1           0       -5.396506   -1.263750   -0.001832
      6          1           0       -5.198662    0.240586    0.887259
      7          1           0       -3.036911   -1.125441    0.892903
      8          1           0       -3.037053   -1.125254   -0.893214
      9          1           0       -2.815055    1.315494    0.827275
     10          1           0       -2.815221    1.315718   -0.827059
     11          6           0       -0.787137    0.427157   -0.000068
     12         53           0        1.916748   -0.069117    0.000008
     13          1           0       -0.751638   -0.126463   -0.933316
     14          1           0       -0.751334   -0.125295    0.933878
     15          1           0       -0.467815    1.465439   -0.000694
 ---------------------------------------------------------------------
 Rotational constants (GHZ):          15.9553103           0.4654211           0.4574084
 Leave Link  202 at Sat Dec 13 12:49:22 2025, MaxMem=   536870912 cpu:               0.0 elap:               0.1
 (Enter D:\G16W\l301.exe)
 Standard basis: VSTO-6G (5D, 7F)
 Ernie: Thresh=  0.10000D-02 Tol=  0.10000D-05 Strict=F.
 EHB=         0.000000000 Number of Hydrogen Bonds=     0
  NNHCO=     0 NNPyr=     0 NCTC=     0               EPep=         0.000000000
    EC=        90.461033181  ECS=         2.170964737   EG=         0.404666066
   EHC=         0.000495373  EAt=       -31.688835444  AtH=         1.868030760
 EPDDG=         0.000000000  ECC=        93.037159357 EAtT=        33.556866204
  EHyb=         0.000000000
 There are    36 symmetry adapted cartesian basis functions of A   symmetry.
 There are    35 symmetry adapted basis functions of A   symmetry.
    35 basis functions,   216 primitive gaussians,    36 cartesian basis functions
    17 alpha electrons       17 beta electrons
       nuclear repulsion energy       126.5940255612 Hartrees.
 IExCor=    0 DFT=F Ex=HF Corr=None ExCW=0 ScaHFX=  1.000000
 ScaDFX=  1.000000  1.000000  1.000000  1.000000 ScalE2=  1.000000  1.000000
 IRadAn=      5 IRanWt=     -1 IRanGd=            0 ICorTp=0 IEmpDi=251
 Integral buffers will be    131072 words long.
 Regular integral format.
 Two-electron integral symmetry is turned off.
 R6Disp:  PM7 Dispersion energy=       -0.0018844958 Hartrees.
 Nuclear repulsion after empirical dispersion term =      126.5921410654 Hartrees.
 Leave Link  301 at Sat Dec 13 12:49:23 2025, MaxMem=   536870912 cpu:               1.0 elap:               0.1
 (Enter D:\G16W\l302.exe)
 Do NDO integrals.
 NPDir=0 NMtPBC=     1 NCelOv=     1 NCel=       1 NClECP=     1 NCelD=      1
         NCelK=      1 NCelE2=     1 NClLst=     1 CellRange=     0.0.
 One-electron integrals computed using PRISM.
 NBasis=    35 RedAO= F EigKep=  0.00D+00  NBF=    35
 NBsUse=    35 1.00D-04 EigRej=  0.00D+00 NBFU=    35
 Leave Link  302 at Sat Dec 13 12:49:23 2025, MaxMem=   536870912 cpu:               0.0 elap:               0.1
 (Enter D:\G16W\l303.exe)
 DipDrv:  MaxL=1.
 Leave Link  303 at Sat Dec 13 12:49:23 2025, MaxMem=   536870912 cpu:               0.0 elap:               0.1
 (Enter D:\G16W\l401.exe)
 Nonelectrostatic core Hamiltonian diagonalized for initial guess.
 JPrj=0 DoOrth=F DoCkMO=F.
 Leave Link  401 at Sat Dec 13 12:49:23 2025, MaxMem=   536870912 cpu:               0.0 elap:               0.1
 (Enter D:\G16W\l502.exe)
 Keep J ints in memory in canonical form, NReq=1851636.
 FoFCou: FMM=F IPFlag=           0 FMFlag=           0 FMFlg1=           0
         NFxFlg=           0 DoJE=F BraDBF=F KetDBF=F FulRan=T
         wScrn=  0.000000 ICntrl=       600 IOpCl=  2 I1Cent=           0 NGrid=           0
         NMat0=    1 NMatS0=     95 NMatT0=    0 NMatD0=    1 NMtDS0=    0 NMtDT0=    0
 Symmetry not used in FoFCou.
 Two-electron integral symmetry not used.
 Closed shell SCF:
 Using DIIS extrapolation, IDIIS=  1040.
 Overlap will be assumed to be unity.
 NGot=   536870912 LenX=   536803821 LenY=   536802084
 Requested convergence on RMS density matrix=1.00D-08 within 128 cycles.
 Requested convergence on MAX density matrix=1.00D-06.
 Requested convergence on             energy=1.00D-06.
 No special actions if energy rises.

 Cycle   1  Pass 1  IDiag  1:
 E= 0.547416910520624    
 DIIS: error= 3.66D-02 at cycle   1 NSaved=   1.
 NSaved= 1 IEnMin= 1 EnMin= 0.547416910520624     IErMin= 1 ErrMin= 3.66D-02
 ErrMax= 3.66D-02  0.00D+00 EMaxC= 1.00D-01 BMatC= 9.08D-02 BMatP= 9.08D-02
 IDIUse=3 WtCom= 6.34D-01 WtEn= 3.66D-01
 Coeff-Com:  0.100D+01
 Coeff-En:   0.100D+01
 Coeff:      0.100D+01
 GapD=    2.000 DampG=2.000 DampE=0.500 DampFc=1.0000 IDamp=-1.
 RMSDP=1.93D-02 MaxDP=1.90D-01              OVMax= 0.00D+00

 Cycle   2  Pass 1  IDiag  1:
 E= 0.147779993599016     Delta-E=       -0.399636916922 Rises=F Damp=F
 DIIS: error= 1.85D-02 at cycle   2 NSaved=   2.
 NSaved= 2 IEnMin= 2 EnMin= 0.147779993599016     IErMin= 2 ErrMin= 1.85D-02
 ErrMax= 1.85D-02  0.00D+00 EMaxC= 1.00D-01 BMatC= 2.02D-02 BMatP= 9.08D-02
 IDIUse=3 WtCom= 8.15D-01 WtEn= 1.85D-01
 Coeff-Com: -0.662D+00 0.166D+01
 Coeff-En:   0.000D+00 0.100D+01
 Coeff:     -0.540D+00 0.154D+01
 RMSDP=1.33D-02 MaxDP=1.05D-01 DE=-4.00D-01 OVMax= 0.00D+00

 Cycle   3  Pass 1  IDiag  3:
 E= 0.375437785858566E-01 Delta-E=       -0.110236215013 Rises=F Damp=F
 DIIS: error= 5.20D-03 at cycle   3 NSaved=   3.
 NSaved= 3 IEnMin= 3 EnMin= 0.375437785858566E-01 IErMin= 3 ErrMin= 5.20D-03
 ErrMax= 5.20D-03  0.00D+00 EMaxC= 1.00D-01 BMatC= 1.38D-03 BMatP= 2.02D-02
 IDIUse=3 WtCom= 9.48D-01 WtEn= 5.20D-02
 Coeff-Com:  0.121D+00-0.528D+00 0.141D+01
 Coeff-En:   0.000D+00 0.000D+00 0.100D+01
 Coeff:      0.115D+00-0.501D+00 0.139D+01
 Gap=     0.263 Goal=   None    Shift=    0.000
 RMSDP=3.99D-03 MaxDP=3.34D-02 DE=-1.10D-01 OVMax= 5.47D-02

 Cycle   4  Pass 1  IDiag  3:
 E= 0.296196252676850E-01 Delta-E=       -0.007924153318 Rises=F Damp=F
 DIIS: error= 1.25D-03 at cycle   4 NSaved=   4.
 NSaved= 4 IEnMin= 4 EnMin= 0.296196252676850E-01 IErMin= 4 ErrMin= 1.25D-03
 ErrMax= 1.25D-03  0.00D+00 EMaxC= 1.00D-01 BMatC= 7.40D-05 BMatP= 1.38D-03
 IDIUse=3 WtCom= 9.87D-01 WtEn= 1.25D-02
 Coeff-Com:  0.345D-01-0.757D-01-0.127D+00 0.117D+01
 Coeff-En:   0.000D+00 0.000D+00 0.000D+00 0.100D+01
 Coeff:      0.341D-01-0.748D-01-0.126D+00 0.117D+01
 Gap=     0.257 Goal=   None    Shift=    0.000
 RMSDP=8.78D-04 MaxDP=8.07D-03 DE=-7.92D-03 OVMax= 1.29D-02

 Cycle   5  Pass 1  IDiag  3:
 E= 0.292305874257437E-01 Delta-E=       -0.000389037842 Rises=F Damp=F
 DIIS: error= 3.96D-04 at cycle   5 NSaved=   5.
 NSaved= 5 IEnMin= 5 EnMin= 0.292305874257437E-01 IErMin= 5 ErrMin= 3.96D-04
 ErrMax= 3.96D-04  0.00D+00 EMaxC= 1.00D-01 BMatC= 5.75D-06 BMatP= 7.40D-05
 IDIUse=3 WtCom= 9.96D-01 WtEn= 3.96D-03
 Coeff-Com: -0.163D-01 0.429D-01 0.160D-02-0.501D+00 0.147D+01
 Coeff-En:   0.000D+00 0.000D+00 0.000D+00 0.000D+00 0.100D+01
 Coeff:     -0.163D-01 0.427D-01 0.159D-02-0.499D+00 0.147D+01
 Gap=     0.255 Goal=   None    Shift=    0.000
 RMSDP=2.61D-04 MaxDP=2.40D-03 DE=-3.89D-04 OVMax= 2.33D-03

 Cycle   6  Pass 1  IDiag  3:
 E= 0.291983534361862E-01 Delta-E=       -0.000032233990 Rises=F Damp=F
 DIIS: error= 6.35D-05 at cycle   6 NSaved=   6.
 NSaved= 6 IEnMin= 6 EnMin= 0.291983534361862E-01 IErMin= 6 ErrMin= 6.35D-05
 ErrMax= 6.35D-05  0.00D+00 EMaxC= 1.00D-01 BMatC= 1.95D-07 BMatP= 5.75D-06
 IDIUse=1 WtCom= 1.00D+00 WtEn= 0.00D+00
 Coeff-Com:  0.264D-03-0.724D-04 0.980D-03 0.206D-01-0.223D+00 0.120D+01
 Coeff:      0.264D-03-0.724D-04 0.980D-03 0.206D-01-0.223D+00 0.120D+01
 Gap=     0.256 Goal=   None    Shift=    0.000
 RMSDP=4.53D-05 MaxDP=4.11D-04 DE=-3.22D-05 OVMax= 4.53D-04

 Cycle   7  Pass 1  IDiag  3:
 E= 0.291972849916817E-01 Delta-E=       -0.000001068445 Rises=F Damp=F
 DIIS: error= 2.21D-05 at cycle   7 NSaved=   7.
 NSaved= 7 IEnMin= 7 EnMin= 0.291972849916817E-01 IErMin= 7 ErrMin= 2.21D-05
 ErrMax= 2.21D-05  0.00D+00 EMaxC= 1.00D-01 BMatC= 1.22D-08 BMatP= 1.95D-07
 IDIUse=1 WtCom= 1.00D+00 WtEn= 0.00D+00
 Coeff-Com:  0.472D-03-0.142D-02-0.106D-02 0.119D-01 0.224D-01-0.423D+00
 Coeff-Com:  0.139D+01
 Coeff:      0.472D-03-0.142D-02-0.106D-02 0.119D-01 0.224D-01-0.423D+00
 Coeff:      0.139D+01
 Gap=     0.256 Goal=   None    Shift=    0.000
 RMSDP=1.10D-05 MaxDP=1.08D-04 DE=-1.07D-06 OVMax= 1.04D-04

 Cycle   8  Pass 1  IDiag  3:
 E= 0.291972161109868E-01 Delta-E=       -0.000000068881 Rises=F Damp=F
 DIIS: error= 7.98D-06 at cycle   8 NSaved=   8.
 NSaved= 8 IEnMin= 8 EnMin= 0.291972161109868E-01 IErMin= 8 ErrMin= 7.98D-06
 ErrMax= 7.98D-06  0.00D+00 EMaxC= 1.00D-01 BMatC= 1.11D-09 BMatP= 1.22D-08
 IDIUse=1 WtCom= 1.00D+00 WtEn= 0.00D+00
 Coeff-Com: -0.225D-03 0.622D-03 0.661D-03-0.684D-02-0.153D-02 0.164D+00
 Coeff-Com: -0.744D+00 0.159D+01
 Coeff:     -0.225D-03 0.622D-03 0.661D-03-0.684D-02-0.153D-02 0.164D+00
 Coeff:     -0.744D+00 0.159D+01
 Gap=     0.256 Goal=   None    Shift=    0.000
 RMSDP=3.62D-06 MaxDP=4.27D-05 DE=-6.89D-08 OVMax= 4.11D-05

 Cycle   9  Pass 1  IDiag  3:
 E= 0.291972090825823E-01 Delta-E=       -0.000000007028 Rises=F Damp=F
 DIIS: error= 2.05D-06 at cycle   9 NSaved=   9.
 NSaved= 9 IEnMin= 9 EnMin= 0.291972090825823E-01 IErMin= 9 ErrMin= 2.05D-06
 ErrMax= 2.05D-06  0.00D+00 EMaxC= 1.00D-01 BMatC= 8.74D-11 BMatP= 1.11D-09
 IDIUse=1 WtCom= 1.00D+00 WtEn= 0.00D+00
 Coeff-Com:  0.287D-04-0.552D-04-0.347D-03 0.179D-02 0.162D-03-0.411D-01
 Coeff-Com:  0.217D+00-0.711D+00 0.153D+01
 Coeff:      0.287D-04-0.552D-04-0.347D-03 0.179D-02 0.162D-03-0.411D-01
 Coeff:      0.217D+00-0.711D+00 0.153D+01
 Gap=     0.256 Goal=   None    Shift=    0.000
 RMSDP=1.12D-06 MaxDP=1.26D-05 DE=-7.03D-09 OVMax= 1.18D-05

 Cycle  10  Pass 1  IDiag  3:
 E= 0.291972085294532E-01 Delta-E=       -0.000000000553 Rises=F Damp=F
 DIIS: error= 3.45D-07 at cycle  10 NSaved=  10.
 NSaved=10 IEnMin=10 EnMin= 0.291972085294532E-01 IErMin=10 ErrMin= 3.45D-07
 ErrMax= 3.45D-07  0.00D+00 EMaxC= 1.00D-01 BMatC= 3.50D-12 BMatP= 8.74D-11
 IDIUse=1 WtCom= 1.00D+00 WtEn= 0.00D+00
 Coeff-Com:  0.312D-05-0.182D-04 0.105D-03-0.294D-03-0.223D-03 0.770D-02
 Coeff-Com: -0.430D-01 0.175D+00-0.546D+00 0.141D+01
 Coeff:      0.312D-05-0.182D-04 0.105D-03-0.294D-03-0.223D-03 0.770D-02
 Coeff:     -0.430D-01 0.175D+00-0.546D+00 0.141D+01
 Gap=     0.256 Goal=   None    Shift=    0.000
 RMSDP=2.05D-07 MaxDP=1.87D-06 DE=-5.53D-10 OVMax= 1.91D-06

 Cycle  11  Pass 1  IDiag  3:
 E= 0.291972085093306E-01 Delta-E=       -0.000000000020 Rises=F Damp=F
 DIIS: error= 6.68D-08 at cycle  11 NSaved=  11.
 NSaved=11 IEnMin=11 EnMin= 0.291972085093306E-01 IErMin=11 ErrMin= 6.68D-08
 ErrMax= 6.68D-08  0.00D+00 EMaxC= 1.00D-01 BMatC= 1.28D-13 BMatP= 3.50D-12
 IDIUse=1 WtCom= 1.00D+00 WtEn= 0.00D+00
 Coeff-Com: -0.139D-05 0.547D-05-0.168D-04 0.292D-04 0.558D-04-0.943D-03
 Coeff-Com:  0.544D-02-0.267D-01 0.101D+00-0.399D+00 0.132D+01
 Coeff:     -0.139D-05 0.547D-05-0.168D-04 0.292D-04 0.558D-04-0.943D-03
 Coeff:      0.544D-02-0.267D-01 0.101D+00-0.399D+00 0.132D+01
 Gap=     0.256 Goal=   None    Shift=    0.000
 RMSDP=3.79D-08 MaxDP=3.79D-07 DE=-2.01D-11 OVMax= 4.42D-07

 Cycle  12  Pass 1  IDiag  3:
 E= 0.291972085082080E-01 Delta-E=       -0.000000000001 Rises=F Damp=F
 DIIS: error= 1.23D-08 at cycle  12 NSaved=  12.
 NSaved=12 IEnMin=12 EnMin= 0.291972085082080E-01 IErMin=12 ErrMin= 1.23D-08
 ErrMax= 1.23D-08  0.00D+00 EMaxC= 1.00D-01 BMatC= 7.46D-15 BMatP= 1.28D-13
 IDIUse=1 WtCom= 1.00D+00 WtEn= 0.00D+00
 Coeff-Com: -0.111D-07 0.152D-07 0.610D-07-0.300D-05 0.164D-04-0.741D-04
 Coeff-Com:  0.132D-03 0.420D-03-0.510D-02 0.470D-01-0.355D+00 0.131D+01
 Coeff:     -0.111D-07 0.152D-07 0.610D-07-0.300D-05 0.164D-04-0.741D-04
 Coeff:      0.132D-03 0.420D-03-0.510D-02 0.470D-01-0.355D+00 0.131D+01
 Gap=     0.256 Goal=   None    Shift=    0.000
 RMSDP=9.23D-09 MaxDP=6.33D-08 DE=-1.12D-12 OVMax= 1.13D-07

 Cycle  13  Pass 2  IDiag  1:
 SCF Done:  E(RPM7) =  0.291972085082E-01 A.U. after   13 cycles
            NFock= 12  Conv=0.92D-08     -V/T= 1.0005
 KE=-5.382673822396D+01 PE=-1.771838646795D+02 EE= 1.044476590466D+02
 Leave Link  502 at Sat Dec 13 12:49:24 2025, MaxMem=   536870912 cpu:               1.0 elap:               0.7
 (Enter D:\G16W\l801.exe)
 Range of M.O.s used for correlation:     1    35
 NBasis=    35 NAE=    17 NBE=    17 NFC=     0 NFV=     0
 NROrb=     35 NOA=    17 NOB=    17 NVA=    18 NVB=    18
 Leave Link  801 at Sat Dec 13 12:49:24 2025, MaxMem=   536870912 cpu:               0.0 elap:               0.1
 (Enter D:\G16W\l1101.exe)
 Using compressed storage, NAtomX=    15.
 Will process     16 centers per pass.
 R6Disp: Adding PM7 dispersion energy 1st derivatives to the gradient.
 Leave Link 1101 at Sat Dec 13 12:49:24 2025, MaxMem=   536870912 cpu:               0.0 elap:               0.2
 (Enter D:\G16W\l1102.exe)
 Symmetrizing basis deriv contribution to polar:
 IMax=3 JMax=2 DiffMx= 0.00D+00
 Leave Link 1102 at Sat Dec 13 12:49:24 2025, MaxMem=   536870912 cpu:               0.0 elap:               0.1
 (Enter D:\G16W\l1110.exe)
 Forming Gx(P) for the SCF density, NAtomX=    15.
 Integral derivatives from FoFJK, PRISM(SPDF).
 Do as many integral derivatives as possible in FoFJK.
 G2DrvN: MDV=     536810790.
 G2DrvN: will do    16 centers at a time, making    1 passes.
 Calling FoFCou, ICntrl=  3107 FMM=F I1Cent=   0 AccDes= 0.00D+00.
 FoFJK:  IHMeth=43 ICntrl=    3107 DoSepK=F KAlg= 0 I1Cent=           0 FoldK=F
 IRaf=         0 NMat=       1 IRICut=       1 DoRegI=T DoRafI=F ISym2E= 0 IDoP0=3 IntGTp=3.
 FoFCou: FMM=F IPFlag=           0 FMFlag=      100000 FMFlg1=           0
         NFxFlg=           0 DoJE=F BraDBF=F KetDBF=F FulRan=T
         wScrn=  0.000000 ICntrl=      3107 IOpCl=  0 I1Cent=           0 NGrid=           0
         NMat0=    1 NMatS0=      1 NMatT0=    0 NMatD0=    1 NMtDS0=    0 NMtDT0=    0
 Symmetry not used in FoFCou.
 End of G2Drv F.D. properties file   721 does not exist.
 End of G2Drv F.D. properties file   722 does not exist.
 End of G2Drv F.D. properties file   788 does not exist.
 Leave Link 1110 at Sat Dec 13 12:49:25 2025, MaxMem=   536870912 cpu:               1.0 elap:               0.2
 (Enter D:\G16W\l1002.exe)
 Minotr:  Closed shell wavefunction.
          IDoAtm=111111111111111
          Direct CPHF calculation.
          Differentiating once with respect to electric field.
                with respect to dipole field.
          Differentiating once with respect to nuclear coordinates.
          Electric field/nuclear overlap derivatives assumed to be zero.
          Requested convergence is 1.0D-08 RMS, and 1.0D-07 maximum.
          NewPWx=T KeepS1=F KeepF1=F KeepIn=T MapXYZ=F SortEE=F KeepMc=T.
 Keep J ints in memory in canonical form, NReq=1853098.
 FoFCou: FMM=F IPFlag=           0 FMFlag=           0 FMFlg1=           0
         NFxFlg=           0 DoJE=F BraDBF=F KetDBF=F FulRan=T
         wScrn=  0.000000 ICntrl=       600 IOpCl=  2 I1Cent=           0 NGrid=           0
         NMat0=    1 NMatS0=     95 NMatT0=    0 NMatD0=    1 NMtDS0=    0 NMtDT0=    0
 Symmetry not used in FoFCou.
 Two-electron integral symmetry not used.
          MDV=     536870912 using IRadAn=       1.
          Solving linear equations separately, MaxMat=       0.
          There are    48 degrees of freedom in the 1st order CPHF.  IDoFFX=5 NUNeed=    48.
 LinEq1:  Iter=  0 NonCon=    48 RMS=4.82D-01 Max=7.93D+00 NDo=    48
 AX will form    48 AO Fock derivatives at one time.
 LinEq1:  Iter=  1 NonCon=    48 RMS=4.13D-02 Max=2.62D-01 NDo=    48
 LinEq1:  Iter=  2 NonCon=    48 RMS=6.52D-03 Max=4.29D-02 NDo=    48
 LinEq1:  Iter=  3 NonCon=    48 RMS=1.22D-03 Max=8.61D-03 NDo=    48
 LinEq1:  Iter=  4 NonCon=    48 RMS=1.50D-04 Max=8.68D-04 NDo=    48
 LinEq1:  Iter=  5 NonCon=    48 RMS=2.19D-05 Max=1.10D-04 NDo=    48
 LinEq1:  Iter=  6 NonCon=    46 RMS=3.13D-06 Max=1.98D-05 NDo=    48
 LinEq1:  Iter=  7 NonCon=    15 RMS=6.22D-07 Max=5.93D-06 NDo=    48
 LinEq1:  Iter=  8 NonCon=     3 RMS=1.08D-07 Max=8.34D-07 NDo=    48
 LinEq1:  Iter=  9 NonCon=     2 RMS=2.55D-08 Max=2.08D-07 NDo=    48
 LinEq1:  Iter= 10 NonCon=     0 RMS=4.30D-09 Max=2.23D-08 NDo=    48
 Linear equations converged to 1.000D-08 1.000D-07 after    10 iterations.
 FullF1:  Do perturbations      1 to       3.
 Isotropic polarizability for W=    0.000000       71.31 Bohr**3.
 End of Minotr F.D. properties file   721 does not exist.
 End of Minotr F.D. properties file   722 does not exist.
 End of Minotr F.D. properties file   788 does not exist.
 Leave Link 1002 at Sat Dec 13 12:49:25 2025, MaxMem=   536870912 cpu:               0.0 elap:               0.4
 (Enter D:\G16W\l601.exe)
 Copying SCF densities to generalized density rwf, IOpCl= 0 IROHF=0.

 **********************************************************************

            Population analysis using the SCF density.

 **********************************************************************

 Orbital symmetries:
       Occupied  (A) (A) (A) (A) (A) (A) (A) (A) (A) (A) (A) (A)
                 (A) (A) (A) (A) (A)
       Virtual   (A) (A) (A) (A) (A) (A) (A) (A) (A) (A) (A) (A)
                 (A) (A) (A) (A) (A) (A)
 The electronic state is 1-A.
 Alpha  occ. eigenvalues --   -1.41078  -1.03675  -0.94121  -0.85313  -0.73735
 Alpha  occ. eigenvalues --   -0.70103  -0.65499  -0.61088  -0.60098  -0.56007
 Alpha  occ. eigenvalues --   -0.55872  -0.53498  -0.50482  -0.50451  -0.28402
 Alpha  occ. eigenvalues --   -0.28172  -0.28170
 Alpha virt. eigenvalues --   -0.02645   0.04702   0.08602   0.12020   0.12281
 Alpha virt. eigenvalues --    0.14878   0.15040   0.15682   0.15769   0.17407
 Alpha virt. eigenvalues --    0.17551   0.17738   0.19593   4.85151   4.85155
 Alpha virt. eigenvalues --    4.85251   4.86126   4.86126
          Condensed to atoms (all electrons):
               1          2          3          4          5          6
     1  C    4.483273   0.000000   0.000000   0.000000   0.000000   0.000000
     2  C    0.000000   4.117167   0.000000   0.000000   0.000000   0.000000
     3  N    0.000000   0.000000   5.437178   0.000000   0.000000   0.000000
     4  H    0.000000   0.000000   0.000000   0.841970   0.000000   0.000000
     5  H    0.000000   0.000000   0.000000   0.000000   0.826257   0.000000
     6  H    0.000000   0.000000   0.000000   0.000000   0.000000   0.841947
     7  H    0.000000   0.000000   0.000000   0.000000   0.000000   0.000000
     8  H    0.000000   0.000000   0.000000   0.000000   0.000000   0.000000
     9  H    0.000000   0.000000   0.000000   0.000000   0.000000   0.000000
    10  H    0.000000   0.000000   0.000000   0.000000   0.000000   0.000000
    11  C    0.000000   0.000000   0.000000   0.000000   0.000000   0.000000
    12  I    0.000000   0.000000   0.000000   0.000000   0.000000   0.000000
    13  H    0.000000   0.000000   0.000000   0.000000   0.000000   0.000000
    14  H    0.000000   0.000000   0.000000   0.000000   0.000000   0.000000
    15  H    0.000000   0.000000   0.000000   0.000000   0.000000   0.000000
               7          8          9         10         11         12
     1  C    0.000000   0.000000   0.000000   0.000000   0.000000   0.000000
     2  C    0.000000   0.000000   0.000000   0.000000   0.000000   0.000000
     3  N    0.000000   0.000000   0.000000   0.000000   0.000000   0.000000
     4  H    0.000000   0.000000   0.000000   0.000000   0.000000   0.000000
     5  H    0.000000   0.000000   0.000000   0.000000   0.000000   0.000000
     6  H    0.000000   0.000000   0.000000   0.000000   0.000000   0.000000
     7  H    0.831854   0.000000   0.000000   0.000000   0.000000   0.000000
     8  H    0.000000   0.831864   0.000000   0.000000   0.000000   0.000000
     9  H    0.000000   0.000000   0.727707   0.000000   0.000000   0.000000
    10  H    0.000000   0.000000   0.000000   0.727708   0.000000   0.000000
    11  C    0.000000   0.000000   0.000000   0.000000   4.049612   0.000000
    12  I    0.000000   0.000000   0.000000   0.000000   0.000000   7.754731
    13  H    0.000000   0.000000   0.000000   0.000000   0.000000   0.000000
    14  H    0.000000   0.000000   0.000000   0.000000   0.000000   0.000000
    15  H    0.000000   0.000000   0.000000   0.000000   0.000000   0.000000
              13         14         15
     1  C    0.000000   0.000000   0.000000
     2  C    0.000000   0.000000   0.000000
     3  N    0.000000   0.000000   0.000000
     4  H    0.000000   0.000000   0.000000
     5  H    0.000000   0.000000   0.000000
     6  H    0.000000   0.000000   0.000000
     7  H    0.000000   0.000000   0.000000
     8  H    0.000000   0.000000   0.000000
     9  H    0.000000   0.000000   0.000000
    10  H    0.000000   0.000000   0.000000
    11  C    0.000000   0.000000   0.000000
    12  I    0.000000   0.000000   0.000000
    13  H    0.842466   0.000000   0.000000
    14  H    0.000000   0.842467   0.000000
    15  H    0.000000   0.000000   0.843799
 Mulliken charges:
               1
     1  C   -0.483273
     2  C   -0.117167
     3  N   -0.437178
     4  H    0.158030
     5  H    0.173743
     6  H    0.158053
     7  H    0.168146
     8  H    0.168136
     9  H    0.272293
    10  H    0.272292
    11  C   -0.049612
    12  I   -0.754731
    13  H    0.157534
    14  H    0.157533
    15  H    0.156201
 Sum of Mulliken charges =   0.00000
 Mulliken charges with hydrogens summed into heavy atoms:
               1
     1  C    0.006553
     2  C    0.219114
     3  N    0.107407
    11  C    0.421657
    12  I   -0.754731
 APT charges:
               1
     1  C   -0.743574
     2  C   -0.047878
     3  N   -1.044194
     4  H    0.212919
     5  H    0.230844
     6  H    0.212938
     7  H    0.165862
     8  H    0.165843
     9  H    0.193233
    10  H    0.193185
    11  C    1.529801
    12  I   -1.231870
    13  H    0.052820
    14  H    0.052829
    15  H    0.057238
 Sum of APT charges =   0.00000
 APT charges with hydrogens summed into heavy atoms:
               1
     1  C   -0.086873
     2  C    0.283828
     3  N   -0.657775
    11  C    1.692688
    12  I   -1.231870
 Charge=              0.0000 electrons
 Dipole moment (field-independent basis, Debye):
    X=            -14.9605    Y=              1.9981    Z=              0.0001  Tot=             15.0933
 N-N= 1.265921410654D+02 E-N=-1.771838647949D+02  KE=-5.382673822396D+01
  Exact polarizability: 155.831 -14.874  31.987   0.003   0.000  26.108
 Approx polarizability:  86.030  -9.992  22.886   0.002   0.000  19.030
 Leave Link  601 at Sat Dec 13 12:49:25 2025, MaxMem=   536870912 cpu:               0.0 elap:               0.1
 (Enter D:\G16W\l701.exe)
 ... and contract with generalized density number  0.
 Compute integral second derivatives.
 R6Disp: Adding PM7 dispersion energy 2nd derivatives to the Hessian.
 Leave Link  701 at Sat Dec 13 12:49:25 2025, MaxMem=   536870912 cpu:               0.0 elap:               0.2
 (Enter D:\G16W\l702.exe)
 L702 exits ... SP integral derivatives will be done elsewhere.
 Leave Link  702 at Sat Dec 13 12:49:26 2025, MaxMem=   536870912 cpu:               0.0 elap:               0.1
 (Enter D:\G16W\l703.exe)
 Integral derivatives from FoFJK, PRISM(SPDF).
 Compute integral second derivatives, UseDBF=F ICtDFT=           0.
 Calling FoFJK, ICntrl=    100127 FMM=F ISym2X=0 I1Cent= 0 IOpClX= 0 NMat=1 NMatS=1 NMatT=0.
 FoFJK:  IHMeth=43 ICntrl=  100127 DoSepK=F KAlg= 0 I1Cent=           0 FoldK=F
 IRaf=         0 NMat=       1 IRICut=       1 DoRegI=T DoRafI=F ISym2E= 0 IDoP0=3 IntGTp=3.
 FoFCou: FMM=F IPFlag=           0 FMFlag=      100000 FMFlg1=         800
         NFxFlg=           0 DoJE=F BraDBF=F KetDBF=F FulRan=T
         wScrn=  0.000000 ICntrl=    100127 IOpCl=  0 I1Cent=           0 NGrid=           0
         NMat0=    1 NMatS0=      1 NMatT0=    0 NMatD0=    1 NMtDS0=    0 NMtDT0=    0
 Symmetry not used in FoFCou.
 Leave Link  703 at Sat Dec 13 12:49:26 2025, MaxMem=   536870912 cpu:               0.0 elap:               0.2
 (Enter D:\G16W\l716.exe)
 Dipole        =-5.88591301D+00 7.86103995D-01 3.86510240D-05
 Polarizability= 1.55831130D+02-1.48740157D+01 3.19873304D+01
                 2.77895314D-03 3.19406360D-04 2.61076517D+01
 HyperPolar    =-6.92601861D+03 9.32263682D+02-1.83064418D+02
                 3.41099384D+01-1.39743950D-01 1.93480524D-02
                -3.40373578D-02-2.85076268D+01 6.67030985D+00
                 3.57291465D-02
 ***** Axes restored to original set *****
 -------------------------------------------------------------------
 Center     Atomic                   Forces (Hartrees/Bohr)
 Number     Number              X              Y              Z
 -------------------------------------------------------------------
      1        6           0.000008334    0.000005639   -0.000002554
      2        6           0.000008041   -0.000002252    0.000000796
      3        7           0.009357882    0.001723237   -0.000025440
      4        1          -0.000000038    0.000001453    0.000002066
      5        1           0.000000584   -0.000001445   -0.000003449
      6        1           0.000000289   -0.000001755    0.000002527
      7        1           0.000000411    0.000003574    0.000003978
      8        1           0.000000906    0.000003719    0.000002466
      9        1          -0.000000947   -0.000003703    0.000003512
     10        1           0.000001732   -0.000006343    0.000011561
     11        6          -0.009346617   -0.001712876   -0.000008772
     12       53          -0.000039149    0.000003175    0.000001559
     13        1           0.000008548   -0.000001794    0.000003146
     14        1          -0.000001441    0.000001644    0.000003073
     15        1           0.000001465   -0.000012272    0.000005531
 -------------------------------------------------------------------
 Cartesian Forces:  Max     0.009357882 RMS     0.002004637
 FormGI is forming the generalized inverse of G from B-inverse, IUseBI=4.
 GSVD:  received Info=                   1 from GESDD.
 Leave Link  716 at Sat Dec 13 12:49:26 2025, MaxMem=   536870912 cpu:               0.0 elap:               0.1
 (Enter D:\G16W\l103.exe)

 GradGradGradGradGradGradGradGradGradGradGradGradGradGradGradGradGradGrad
 Berny optimization.
 Red2BG is reusing G-inverse.
 Internal  Forces:  Max     0.009534016 RMS     0.001093654
 Search for a saddle point.
 Step number   1 out of a maximum of   86
 All quantities printed in internal units (Hartrees-Bohrs-Radians)
 Swapping is turned off.
 Second derivative matrix not updated -- analytic derivatives used.
 ITU=  0
     Eigenvalues ---   -0.04691   0.00058   0.00098   0.00122   0.01532
     Eigenvalues ---    0.01550   0.01795   0.02888   0.03186   0.03333
     Eigenvalues ---    0.03430   0.03707   0.03845   0.03872   0.04115
     Eigenvalues ---    0.06183   0.07272   0.08217   0.08246   0.09807
     Eigenvalues ---    0.11303   0.11568   0.12428   0.12755   0.13356
     Eigenvalues ---    0.15957   0.18604   0.22511   0.22706   0.24791
     Eigenvalues ---    0.25528   0.25624   0.25669   0.26355   0.26607
     Eigenvalues ---    0.27207   0.28229   0.38236   0.45792
 Eigenvectors required to have negative eigenvalues:
                          R10       R11       A19       A20       A21
   1                   -0.70929   0.53821   0.23577   0.23575   0.23553
                          A24       A23       A22       R17       R15
   1                   -0.09734  -0.09732  -0.09702   0.04496   0.03604
 RFO step:  Lambda0=9.508303352D-04 Lambda=-5.73384197D-04.
 Linear search not attempted -- option 19 set.
 Iteration  1 RMS(Cart)=  0.01267223 RMS(Int)=  0.00042609
 Iteration  2 RMS(Cart)=  0.00024761 RMS(Int)=  0.00035049
 Iteration  3 RMS(Cart)=  0.00000031 RMS(Int)=  0.00035049
 ITry= 1 IFail=0 DXMaxC= 8.13D-02 DCOld= 1.00D+10 DXMaxT= 3.00D-01 DXLimC= 3.00D+00 Rises=F
 Variable       Old X    -DE/DX   Delta X   Delta X   Delta X     New X
                                 (Linear)    (Quad)   (Total)
    R1        2.87759  -0.00001   0.00000   0.00167   0.00167   2.87926
    R2        2.07324   0.00000   0.00000  -0.00035  -0.00035   2.07289
    R3        2.08088   0.00000   0.00000  -0.00107  -0.00107   2.07980
    R4        2.07326   0.00000   0.00000  -0.00037  -0.00037   2.07289
    R5        2.82933   0.00000   0.00000  -0.00200  -0.00200   2.82733
    R6        2.10794   0.00000   0.00000  -0.00085  -0.00085   2.10709
    R7        2.10792   0.00000   0.00000  -0.00083  -0.00083   2.10708
    R8        1.92738   0.00000   0.00000  -0.00106  -0.00106   1.92633
    R9        1.92731   0.00001   0.00000  -0.00099  -0.00099   1.92632
   R10        3.47709  -0.00953   0.00000   0.04007   0.04007   3.51716
   R11        5.19495  -0.00002   0.00000  -0.14169  -0.14200   5.05295
   R12        2.05164   0.00000   0.00000  -0.00145  -0.00141   2.05023
   R13        2.05167   0.00000   0.00000  -0.00148  -0.00142   2.05025
   R14        2.05276   0.00001   0.00000  -0.00148  -0.00145   2.05131
   R15        5.34317  -0.00001   0.00000  -0.06371  -0.06363   5.27954
   R16        5.34292  -0.00001   0.00000  -0.06341  -0.06334   5.27959
   R17        5.35863   0.00001   0.00000  -0.06973  -0.06964   5.28899
    A1        1.96624   0.00000   0.00000  -0.00173  -0.00174   1.96450
    A2        1.93473   0.00000   0.00000   0.00047   0.00047   1.93519
    A3        1.96618   0.00000   0.00000  -0.00169  -0.00169   1.96449
    A4        1.85451   0.00000   0.00000   0.00178   0.00178   1.85629
    A5        1.88066   0.00000   0.00000  -0.00021  -0.00021   1.88045
    A6        1.85455   0.00000   0.00000   0.00175   0.00175   1.85630
    A7        1.94625   0.00000   0.00000   0.00390   0.00390   1.95015
    A8        1.93487   0.00000   0.00000  -0.00095  -0.00095   1.93391
    A9        1.93488   0.00000   0.00000  -0.00096  -0.00096   1.93392
   A10        1.89416   0.00000   0.00000  -0.00117  -0.00117   1.89299
   A11        1.89415   0.00000   0.00000  -0.00115  -0.00115   1.89300
   A12        1.85663   0.00000   0.00000   0.00013   0.00013   1.85677
   A13        1.94240   0.00001   0.00000  -0.00278  -0.00279   1.93961
   A14        1.94245   0.00001   0.00000  -0.00282  -0.00284   1.93961
   A15        1.91504  -0.00004   0.00000   0.00588   0.00587   1.92092
   A16        1.89179  -0.00001   0.00000  -0.00412  -0.00413   1.88766
   A17        1.88507   0.00001   0.00000   0.00208   0.00209   1.88716
   A18        1.88524   0.00001   0.00000   0.00194   0.00194   1.88718
   A19        1.69565  -0.00001   0.00000  -0.03302  -0.03334   1.66231
   A20        1.69567  -0.00002   0.00000  -0.03306  -0.03337   1.66230
   A21        1.68707   0.00001   0.00000  -0.03369  -0.03400   1.65307
   A22        2.07019   0.00000   0.00000   0.01345   0.01174   2.08193
   A23        2.06837   0.00000   0.00000   0.01378   0.01207   2.08044
   A24        2.06822   0.00001   0.00000   0.01392   0.01222   2.08044
   A25        0.67302   0.00000   0.00000   0.01062   0.01039   0.68340
   A26        0.67179   0.00000   0.00000   0.01107   0.01085   0.68264
   A27        0.67178   0.00000   0.00000   0.01108   0.01086   0.68264
   A28        3.14193  -0.00001   0.00000   0.00117   0.00118   3.14311
   A29        3.14112   0.00002   0.00000  -0.00218  -0.00219   3.13893
    D1        1.06424   0.00000   0.00000  -0.00028  -0.00028   1.06395
    D2       -3.10633   0.00000   0.00000   0.00023   0.00023  -3.10610
    D3       -1.04838   0.00000   0.00000  -0.00082  -0.00082  -1.04920
    D4        3.13979   0.00000   0.00000   0.00115   0.00115   3.14093
    D5       -1.03078   0.00000   0.00000   0.00167   0.00167  -1.02912
    D6        1.02717   0.00000   0.00000   0.00062   0.00062   1.02779
    D7       -1.06785   0.00000   0.00000   0.00258   0.00258  -1.06527
    D8        1.04477   0.00000   0.00000   0.00309   0.00309   1.04786
    D9        3.10272   0.00000   0.00000   0.00204   0.00204   3.10477
   D10        1.05614   0.00000   0.00000  -0.00466  -0.00465   1.05149
   D11       -1.05605  -0.00001   0.00000   0.00445   0.00444  -1.05161
   D12        3.14152   0.00000   0.00000   0.00000   0.00000   3.14151
   D13       -1.08005   0.00000   0.00000  -0.00519  -0.00519  -1.08524
   D14        3.09094  -0.00001   0.00000   0.00392   0.00391   3.09485
   D15        1.00532   0.00000   0.00000  -0.00053  -0.00053   1.00479
   D16       -3.09084   0.00000   0.00000  -0.00413  -0.00412  -3.09496
   D17        1.08015   0.00000   0.00000   0.00498   0.00498   1.08513
   D18       -1.00546   0.00000   0.00000   0.00053   0.00053  -1.00493
   D19        1.04776   0.00000   0.00000   0.00008   0.00006   1.04782
   D20       -1.04917   0.00000   0.00000   0.00061   0.00063  -1.04854
   D21        3.14096   0.00000   0.00000   0.00027   0.00027   3.14123
   D22       -3.11527   0.00000   0.00000   0.00151   0.00150  -3.11377
   D23        1.07099   0.00000   0.00000   0.00204   0.00206   1.07305
   D24       -1.02207   0.00000   0.00000   0.00170   0.00171  -1.02036
   D25       -1.07257   0.00000   0.00000  -0.00121  -0.00123  -1.07380
   D26        3.11369   0.00000   0.00000  -0.00067  -0.00066   3.11302
   D27        1.02063   0.00000   0.00000  -0.00101  -0.00102   1.01961
   D28       -0.55697   0.00000   0.00000  -0.00170  -0.00163  -0.55860
   D29        0.55830   0.00000   0.00000   0.00110   0.00115   0.55946
   D30       -0.55835   0.00000   0.00000  -0.00106  -0.00110  -0.55946
         Item               Value     Threshold  Converged?
 Maximum Force            0.009534     0.000450     NO 
 RMS     Force            0.001094     0.000300     NO 
 Maximum Displacement     0.081337     0.001800     NO 
 RMS     Displacement     0.012704     0.001200     NO 
 Predicted change in Energy= 1.926220D-04
 Lowest energy point so far.  Saving SCF results.
 GradGradGradGradGradGradGradGradGradGradGradGradGradGradGradGradGradGrad

 Leave Link  103 at Sat Dec 13 12:49:26 2025, MaxMem=   536870912 cpu:               0.0 elap:               0.1
 (Enter D:\G16W\l202.exe)
                          Input orientation:                          
 ---------------------------------------------------------------------
 Center     Atomic      Atomic             Coordinates (Angstroms)
 Number     Number       Type             X           Y           Z
 ---------------------------------------------------------------------
      1          6           0       -4.852754    0.303860   -0.000039
      2          6           0       -3.346678    0.534531    0.000149
      3          7           0       -2.588600   -0.755359   -0.000120
      4          1           0       -5.194330   -0.246139    0.885439
      5          1           0       -5.396150    1.260944    0.000839
      6          1           0       -5.194340   -0.244529   -0.886513
      7          1           0       -3.036573    1.126500   -0.892422
      8          1           0       -3.036722    1.126052    0.893067
      9          1           0       -2.809149   -1.311059   -0.825750
     10          1           0       -2.809198   -1.311441    0.825239
     11          6           0       -0.757875   -0.419927   -0.000014
     12         53           0        1.873706    0.053945    0.000165
     13          1           0       -0.757618    0.128514    0.936094
     14          1           0       -0.757469    0.128266   -0.936278
     15          1           0       -0.475150   -1.467971    0.000151
 ---------------------------------------------------------------------
                    Distance matrix (angstroms):
                    1          2          3          4          5
     1  C    0.000000
     2  C    1.523638   0.000000
     3  N    2.499668   1.496161   0.000000
     4  H    1.096925   2.192487   2.798812   0.000000
     5  H    1.100585   2.174399   3.456561   1.759133   0.000000
     6  H    1.096927   2.192477   2.799378   1.771953   1.759139
     7  H    2.184399   1.115023   2.130322   3.114618   2.526578
     8  H    2.184402   1.115021   2.130329   2.556998   2.526097
     9  H    2.732414   2.092188   1.019367   3.122709   3.740458
    10  H    2.732472   2.092193   1.019367   2.612919   3.740203
    11  C    4.158354   2.759148   1.861201   4.527291   4.933450
    12  I    6.731102   5.242459   4.535102   7.129579   7.369373
    13  H    4.204430   2.782818   2.238352   4.452790   4.865498
    14  H    4.204609   2.783155   2.238353   4.810880   4.866056
    15  H    4.722584   3.500813   2.230356   4.954519   5.627008
                    6          7          8          9         10
     6  H    0.000000
     7  H    2.556504   0.000000
     8  H    3.114597   1.785489   0.000000
     9  H    2.613487   2.449053   2.990925   0.000000
    10  H    3.123667   2.990922   2.449028   1.650989   0.000000
    11  C    4.527568   2.894874   2.894959   2.384048   2.384065
    12  I    7.129696   5.104697   5.104801   4.947171   4.947183
    13  H    4.810983   3.087569   2.488222   3.063534   2.508931
    14  H    4.452783   2.488515   3.088215   2.508638   3.063542
    15  H    4.955172   3.753512   3.753386   2.480782   2.480534
                   11         12         13         14         15
    11  C    0.000000
    12  I    2.673906   0.000000
    13  H    1.084936   2.793813   0.000000
    14  H    1.084945   2.793838   1.872372   0.000000
    15  H    1.085509   2.798813   1.872042   1.872052   0.000000
 Stoichiometry    C3H10IN
 Framework group  C1[X(C3H10IN)]
 Deg. of freedom    39
 Full point group                 C1      NOp   1
 RotChk:  IX=0 Diff= 4.85D-03
 Largest Abelian subgroup         C1      NOp   1
 Largest concise Abelian subgroup C1      NOp   1
                         Standard orientation:                         
 ---------------------------------------------------------------------
 Center     Atomic      Atomic             Coordinates (Angstroms)
 Number     Number       Type             X           Y           Z
 ---------------------------------------------------------------------
      1          6           0       -4.830791   -0.295607    0.000044
      2          6           0       -3.325513   -0.531431   -0.000049
      3          7           0       -2.563025    0.755856   -0.000017
      4          1           0       -5.170454    0.255379   -0.885556
      5          1           0       -5.377459   -1.250825   -0.000657
      6          1           0       -5.170525    0.254128    0.886396
      7          1           0       -3.017463   -1.124277    0.892651
      8          1           0       -3.017555   -1.124191   -0.892838
      9          1           0       -2.781696    1.312476    0.825493
     10          1           0       -2.781692    1.312523   -0.825496
     11          6           0       -0.733458    0.414161    0.000002
     12         53           0        1.896486   -0.068714    0.000002
     13          1           0       -0.735050   -0.134467   -0.935994
     14          1           0       -0.734958   -0.133841    0.936377
     15          1           0       -0.447149    1.461232   -0.000366
 ---------------------------------------------------------------------
 Rotational constants (GHZ):          16.1522043           0.4736285           0.4655006
 Leave Link  202 at Sat Dec 13 12:49:26 2025, MaxMem=   536870912 cpu:               0.0 elap:               0.1
 (Enter D:\G16W\l301.exe)
 Standard basis: VSTO-6G (5D, 7F)
 Ernie: Thresh=  0.10000D-02 Tol=  0.10000D-05 Strict=F.
 EHB=         0.000000000 Number of Hydrogen Bonds=     0
  NNHCO=     0 NNPyr=     0 NCTC=     0               EPep=         0.000000000
    EC=        90.634705604  ECS=         2.179391925   EG=         0.403930044
   EHC=         0.000498812  EAt=       -31.688835444  AtH=         1.868030760
 EPDDG=         0.000000000  ECC=        93.218526386 EAtT=        33.556866204
  EHyb=         0.000000000
 There are    36 symmetry adapted cartesian basis functions of A   symmetry.
 There are    35 symmetry adapted basis functions of A   symmetry.
    35 basis functions,   216 primitive gaussians,    36 cartesian basis functions
    17 alpha electrons       17 beta electrons
       nuclear repulsion energy       126.7753925903 Hartrees.
 IExCor=    0 DFT=F Ex=HF Corr=None ExCW=0 ScaHFX=  1.000000
 ScaDFX=  1.000000  1.000000  1.000000  1.000000 ScalE2=  1.000000  1.000000
 IRadAn=      5 IRanWt=     -1 IRanGd=            0 ICorTp=0 IEmpDi=251
 Integral buffers will be    131072 words long.
 Regular integral format.
 Two-electron integral symmetry is turned off.
 R6Disp:  PM7 Dispersion energy=       -0.0019017440 Hartrees.
 Nuclear repulsion after empirical dispersion term =      126.7734908462 Hartrees.
 Leave Link  301 at Sat Dec 13 12:49:26 2025, MaxMem=   536870912 cpu:               0.0 elap:               0.1
 (Enter D:\G16W\l302.exe)
 Do NDO integrals.
 NPDir=0 NMtPBC=     1 NCelOv=     1 NCel=       1 NClECP=     1 NCelD=      1
         NCelK=      1 NCelE2=     1 NClLst=     1 CellRange=     0.0.
 One-electron integrals computed using PRISM.
 NBasis=    35 RedAO= F EigKep=  0.00D+00  NBF=    35
 NBsUse=    35 1.00D-04 EigRej=  0.00D+00 NBFU=    35
 Leave Link  302 at Sat Dec 13 12:49:27 2025, MaxMem=   536870912 cpu:               0.0 elap:               0.2
 (Enter D:\G16W\l303.exe)
 DipDrv:  MaxL=1.
 Leave Link  303 at Sat Dec 13 12:49:27 2025, MaxMem=   536870912 cpu:               0.0 elap:               0.1
 (Enter D:\G16W\l401.exe)
 Initial guess from the checkpoint file:  ".\Gau-15564.chk"
 B after Tr=     0.000000    0.000000    0.000000
         Rot=    1.000000    0.000067    0.000000    0.000565 Ang=   0.07 deg.
 Guess basis will be translated and rotated to current coordinates.
 JPrj=0 DoOrth=T DoCkMO=T.
 Leave Link  401 at Sat Dec 13 12:49:27 2025, MaxMem=   536870912 cpu:               0.0 elap:               0.2
 (Enter D:\G16W\l502.exe)
 Keep J ints in memory in canonical form, NReq=1851636.
 FoFCou: FMM=F IPFlag=           0 FMFlag=           0 FMFlg1=           0
         NFxFlg=           0 DoJE=F BraDBF=F KetDBF=F FulRan=T
         wScrn=  0.000000 ICntrl=       600 IOpCl=  2 I1Cent=           0 NGrid=           0
         NMat0=    1 NMatS0=     95 NMatT0=    0 NMatD0=    1 NMtDS0=    0 NMtDT0=    0
 Symmetry not used in FoFCou.
 Two-electron integral symmetry not used.
 Closed shell SCF:
 Using DIIS extrapolation, IDIIS=  1040.
 Overlap will be assumed to be unity.
 NGot=   536870912 LenX=   536803821 LenY=   536802084
 Requested convergence on RMS density matrix=1.00D-08 within 128 cycles.
 Requested convergence on MAX density matrix=1.00D-06.
 Requested convergence on             energy=1.00D-06.
 No special actions if energy rises.

 Cycle   1  Pass 1  IDiag  1:
 E= 0.307965265909615E-01
 DIIS: error= 4.05D-03 at cycle   1 NSaved=   1.
 NSaved= 1 IEnMin= 1 EnMin= 0.307965265909615E-01 IErMin= 1 ErrMin= 4.05D-03
 ErrMax= 4.05D-03  0.00D+00 EMaxC= 1.00D-01 BMatC= 3.98D-04 BMatP= 3.98D-04
 IDIUse=3 WtCom= 9.60D-01 WtEn= 4.05D-02
 Coeff-Com:  0.100D+01
 Coeff-En:   0.100D+01
 Coeff:      0.100D+01
 GapD=    2.000 DampG=2.000 DampE=1.000 DampFc=2.0000 IDamp=-1.
 RMSDP=1.16D-03 MaxDP=1.41D-02              OVMax= 0.00D+00

 Cycle   2  Pass 1  IDiag  3:
 E= 0.296539604781429E-01 Delta-E=       -0.001142566113 Rises=F Damp=F
 DIIS: error= 1.56D-03 at cycle   2 NSaved=   2.
 NSaved= 2 IEnMin= 2 EnMin= 0.296539604781429E-01 IErMin= 2 ErrMin= 1.56D-03
 ErrMax= 1.56D-03  0.00D+00 EMaxC= 1.00D-01 BMatC= 4.19D-05 BMatP= 3.98D-04
 IDIUse=3 WtCom= 9.84D-01 WtEn= 1.56D-02
 Coeff-Com: -0.263D+00 0.126D+01
 Coeff-En:   0.000D+00 0.100D+01
 Coeff:     -0.259D+00 0.126D+01
 Gap=     0.265 Goal=   None    Shift=    0.000
 RMSDP=6.60D-04 MaxDP=8.49D-03 DE=-1.14D-03 OVMax= 1.19D-02

 Cycle   3  Pass 1  IDiag  3:
 E= 0.294150440357441E-01 Delta-E=       -0.000238916442 Rises=F Damp=F
 DIIS: error= 3.92D-04 at cycle   3 NSaved=   3.
 NSaved= 3 IEnMin= 3 EnMin= 0.294150440357441E-01 IErMin= 3 ErrMin= 3.92D-04
 ErrMax= 3.92D-04  0.00D+00 EMaxC= 1.00D-01 BMatC= 4.24D-06 BMatP= 4.19D-05
 IDIUse=3 WtCom= 9.96D-01 WtEn= 3.92D-03
 Coeff-Com:  0.133D-01-0.375D+00 0.136D+01
 Coeff-En:   0.000D+00 0.000D+00 0.100D+01
 Coeff:      0.133D-01-0.373D+00 0.136D+01
 Gap=     0.267 Goal=   None    Shift=    0.000
 RMSDP=2.99D-04 MaxDP=3.96D-03 DE=-2.39D-04 OVMax= 5.61D-03

 Cycle   4  Pass 1  IDiag  3:
 E= 0.293812376715010E-01 Delta-E=       -0.000033806364 Rises=F Damp=F
 DIIS: error= 1.11D-04 at cycle   4 NSaved=   4.
 NSaved= 4 IEnMin= 4 EnMin= 0.293812376715010E-01 IErMin= 4 ErrMin= 1.11D-04
 ErrMax= 1.11D-04  0.00D+00 EMaxC= 1.00D-01 BMatC= 2.88D-07 BMatP= 4.24D-06
 IDIUse=3 WtCom= 9.99D-01 WtEn= 1.11D-03
 Coeff-Com:  0.354D-02 0.612D-01-0.472D+00 0.141D+01
 Coeff-En:   0.000D+00 0.000D+00 0.000D+00 0.100D+01
 Coeff:      0.353D-02 0.611D-01-0.471D+00 0.141D+01
 Gap=     0.267 Goal=   None    Shift=    0.000
 RMSDP=8.89D-05 MaxDP=1.21D-03 DE=-3.38D-05 OVMax= 1.74D-03

 Cycle   5  Pass 1  IDiag  3:
 E= 0.293788586600527E-01 Delta-E=       -0.000002379011 Rises=F Damp=F
 DIIS: error= 2.20D-05 at cycle   5 NSaved=   5.
 NSaved= 5 IEnMin= 5 EnMin= 0.293788586600527E-01 IErMin= 5 ErrMin= 2.20D-05
 ErrMax= 2.20D-05  0.00D+00 EMaxC= 1.00D-01 BMatC= 1.48D-08 BMatP= 2.88D-07
 IDIUse=1 WtCom= 1.00D+00 WtEn= 0.00D+00
 Coeff-Com: -0.300D-02 0.259D-01-0.150D-01-0.289D+00 0.128D+01
 Coeff:     -0.300D-02 0.259D-01-0.150D-01-0.289D+00 0.128D+01
 Gap=     0.267 Goal=   None    Shift=    0.000
 RMSDP=1.54D-05 MaxDP=2.04D-04 DE=-2.38D-06 OVMax= 2.92D-04

 Cycle   6  Pass 1  IDiag  3:
 E= 0.293787739267088E-01 Delta-E=       -0.000000084733 Rises=F Damp=F
 DIIS: error= 3.31D-06 at cycle   6 NSaved=   6.
 NSaved= 6 IEnMin= 6 EnMin= 0.293787739267088E-01 IErMin= 6 ErrMin= 3.31D-06
 ErrMax= 3.31D-06  0.00D+00 EMaxC= 1.00D-01 BMatC= 5.39D-10 BMatP= 1.48D-08
 IDIUse=1 WtCom= 1.00D+00 WtEn= 0.00D+00
 Coeff-Com:  0.850D-03-0.124D-01 0.274D-01 0.305D-01-0.403D+00 0.136D+01
 Coeff:      0.850D-03-0.124D-01 0.274D-01 0.305D-01-0.403D+00 0.136D+01
 Gap=     0.267 Goal=   None    Shift=    0.000
 RMSDP=2.82D-06 MaxDP=3.54D-05 DE=-8.47D-08 OVMax= 5.04D-05

 Cycle   7  Pass 1  IDiag  3:
 E= 0.293787709747733E-01 Delta-E=       -0.000000002952 Rises=F Damp=F
 DIIS: error= 7.57D-07 at cycle   7 NSaved=   7.
 NSaved= 7 IEnMin= 7 EnMin= 0.293787709747733E-01 IErMin= 7 ErrMin= 7.57D-07
 ErrMax= 7.57D-07  0.00D+00 EMaxC= 1.00D-01 BMatC= 2.68D-11 BMatP= 5.39D-10
 IDIUse=1 WtCom= 1.00D+00 WtEn= 0.00D+00
 Coeff-Com: -0.222D-03 0.388D-02-0.975D-02-0.184D-02 0.112D+00-0.536D+00
 Coeff-Com:  0.143D+01
 Coeff:     -0.222D-03 0.388D-02-0.975D-02-0.184D-02 0.112D+00-0.536D+00
 Coeff:      0.143D+01
 Gap=     0.267 Goal=   None    Shift=    0.000
 RMSDP=5.14D-07 MaxDP=4.42D-06 DE=-2.95D-09 OVMax= 4.46D-06

 Cycle   8  Pass 1  IDiag  3:
 E= 0.293787708294815E-01 Delta-E=       -0.000000000145 Rises=F Damp=F
 DIIS: error= 2.05D-07 at cycle   8 NSaved=   8.
 NSaved= 8 IEnMin= 8 EnMin= 0.293787708294815E-01 IErMin= 8 ErrMin= 2.05D-07
 ErrMax= 2.05D-07  0.00D+00 EMaxC= 1.00D-01 BMatC= 1.55D-12 BMatP= 2.68D-11
 IDIUse=1 WtCom= 1.00D+00 WtEn= 0.00D+00
 Coeff-Com:  0.478D-04-0.799D-03 0.185D-02 0.105D-02-0.254D-01 0.127D+00
 Coeff-Com: -0.483D+00 0.138D+01
 Coeff:      0.478D-04-0.799D-03 0.185D-02 0.105D-02-0.254D-01 0.127D+00
 Coeff:     -0.483D+00 0.138D+01
 Gap=     0.267 Goal=   None    Shift=    0.000
 RMSDP=1.43D-07 MaxDP=1.59D-06 DE=-1.45D-10 OVMax= 1.86D-06

 Cycle   9  Pass 1  IDiag  3:
 E= 0.293787708189939E-01 Delta-E=       -0.000000000010 Rises=F Damp=F
 DIIS: error= 6.87D-08 at cycle   9 NSaved=   9.
 NSaved= 9 IEnMin= 9 EnMin= 0.293787708189939E-01 IErMin= 9 ErrMin= 6.87D-08
 ErrMax= 6.87D-08  0.00D+00 EMaxC= 1.00D-01 BMatC= 1.65D-13 BMatP= 1.55D-12
 IDIUse=1 WtCom= 1.00D+00 WtEn= 0.00D+00
 Coeff-Com: -0.227D-06-0.166D-04 0.870D-04-0.195D-03 0.368D-03-0.620D-02
 Coeff-Com:  0.736D-01-0.564D+00 0.150D+01
 Coeff:     -0.227D-06-0.166D-04 0.870D-04-0.195D-03 0.368D-03-0.620D-02
 Coeff:      0.736D-01-0.564D+00 0.150D+01
 Gap=     0.267 Goal=   None    Shift=    0.000
 RMSDP=5.90D-08 MaxDP=7.14D-07 DE=-1.05D-11 OVMax= 8.90D-07

 Cycle  10  Pass 1  IDiag  3:
 E= 0.293787708176865E-01 Delta-E=       -0.000000000001 Rises=F Damp=F
 DIIS: error= 1.62D-08 at cycle  10 NSaved=  10.
 NSaved=10 IEnMin=10 EnMin= 0.293787708176865E-01 IErMin=10 ErrMin= 1.62D-08
 ErrMax= 1.62D-08  0.00D+00 EMaxC= 1.00D-01 BMatC= 1.06D-14 BMatP= 1.65D-13
 IDIUse=1 WtCom= 1.00D+00 WtEn= 0.00D+00
 Coeff-Com: -0.215D-05 0.462D-04-0.106D-03-0.821D-04 0.152D-02-0.526D-02
 Coeff-Com:  0.206D-02 0.127D+00-0.580D+00 0.146D+01
 Coeff:     -0.215D-05 0.462D-04-0.106D-03-0.821D-04 0.152D-02-0.526D-02
 Coeff:      0.206D-02 0.127D+00-0.580D+00 0.146D+01
 Gap=     0.267 Goal=   None    Shift=    0.000
 RMSDP=1.57D-08 MaxDP=2.14D-07 DE=-1.31D-12 OVMax= 2.57D-07

 Cycle  11  Pass 1  IDiag  3:
 E= 0.293787708170186E-01 Delta-E=       -0.000000000001 Rises=F Damp=F
 DIIS: error= 4.59D-09 at cycle  11 NSaved=  11.
 NSaved=11 IEnMin=11 EnMin= 0.293787708170186E-01 IErMin=11 ErrMin= 4.59D-09
 ErrMax= 4.59D-09  0.00D+00 EMaxC= 1.00D-01 BMatC= 6.98D-16 BMatP= 1.06D-14
 IDIUse=1 WtCom= 1.00D+00 WtEn= 0.00D+00
 Coeff-Com:  0.103D-05-0.185D-04 0.393D-04 0.471D-04-0.645D-03 0.252D-02
 Coeff-Com: -0.590D-02-0.813D-02 0.103D+00-0.490D+00 0.140D+01
 Coeff:      0.103D-05-0.185D-04 0.393D-04 0.471D-04-0.645D-03 0.252D-02
 Coeff:     -0.590D-02-0.813D-02 0.103D+00-0.490D+00 0.140D+01
 Gap=     0.267 Goal=   None    Shift=    0.000
 RMSDP=4.05D-09 MaxDP=5.86D-08 DE=-6.68D-13 OVMax= 6.94D-08

 Cycle  12  Pass 2  IDiag  1:
 SCF Done:  E(RPM7) =  0.293787708170E-01 A.U. after   12 cycles
            NFock= 11  Conv=0.41D-08     -V/T= 1.0005
 KE=-5.379889583213D+01 PE=-1.776975248488D+02 EE= 1.047523086056D+02
 Leave Link  502 at Sat Dec 13 12:49:28 2025, MaxMem=   536870912 cpu:               1.0 elap:               0.6
 (Enter D:\G16W\l801.exe)
 Range of M.O.s used for correlation:     1    35
 NBasis=    35 NAE=    17 NBE=    17 NFC=     0 NFV=     0
 NROrb=     35 NOA=    17 NOB=    17 NVA=    18 NVB=    18
 Leave Link  801 at Sat Dec 13 12:49:28 2025, MaxMem=   536870912 cpu:               0.0 elap:               0.1
 (Enter D:\G16W\l1101.exe)
 Using compressed storage, NAtomX=    15.
 Will process     16 centers per pass.
 R6Disp: Adding PM7 dispersion energy 1st derivatives to the gradient.
 Leave Link 1101 at Sat Dec 13 12:49:28 2025, MaxMem=   536870912 cpu:               0.0 elap:               0.2
 (Enter D:\G16W\l1102.exe)
 Symmetrizing basis deriv contribution to polar:
 IMax=3 JMax=2 DiffMx= 0.00D+00
 Leave Link 1102 at Sat Dec 13 12:49:28 2025, MaxMem=   536870912 cpu:               0.0 elap:               0.1
 (Enter D:\G16W\l1110.exe)
 Forming Gx(P) for the SCF density, NAtomX=    15.
 Integral derivatives from FoFJK, PRISM(SPDF).
 Do as many integral derivatives as possible in FoFJK.
 G2DrvN: MDV=     536810790.
 G2DrvN: will do    16 centers at a time, making    1 passes.
 Calling FoFCou, ICntrl=  3107 FMM=F I1Cent=   0 AccDes= 0.00D+00.
 FoFJK:  IHMeth=43 ICntrl=    3107 DoSepK=F KAlg= 0 I1Cent=           0 FoldK=F
 IRaf=         0 NMat=       1 IRICut=       1 DoRegI=T DoRafI=F ISym2E= 0 IDoP0=3 IntGTp=3.
 FoFCou: FMM=F IPFlag=           0 FMFlag=      100000 FMFlg1=           0
         NFxFlg=           0 DoJE=F BraDBF=F KetDBF=F FulRan=T
         wScrn=  0.000000 ICntrl=      3107 IOpCl=  0 I1Cent=           0 NGrid=           0
         NMat0=    1 NMatS0=      1 NMatT0=    0 NMatD0=    1 NMtDS0=    0 NMtDT0=    0
 Symmetry not used in FoFCou.
 End of G2Drv F.D. properties file   721 does not exist.
 End of G2Drv F.D. properties file   722 does not exist.
 End of G2Drv F.D. properties file   788 does not exist.
 Leave Link 1110 at Sat Dec 13 12:49:29 2025, MaxMem=   536870912 cpu:               1.0 elap:               0.1
 (Enter D:\G16W\l1002.exe)
 Minotr:  Closed shell wavefunction.
          IDoAtm=111111111111111
          Direct CPHF calculation.
          Differentiating once with respect to electric field.
                with respect to dipole field.
          Differentiating once with respect to nuclear coordinates.
          Electric field/nuclear overlap derivatives assumed to be zero.
          Requested convergence is 1.0D-08 RMS, and 1.0D-07 maximum.
          NewPWx=T KeepS1=F KeepF1=F KeepIn=T MapXYZ=F SortEE=F KeepMc=T.
 Keep J ints in memory in canonical form, NReq=1853098.
 FoFCou: FMM=F IPFlag=           0 FMFlag=           0 FMFlg1=           0
         NFxFlg=           0 DoJE=F BraDBF=F KetDBF=F FulRan=T
         wScrn=  0.000000 ICntrl=       600 IOpCl=  2 I1Cent=           0 NGrid=           0
         NMat0=    1 NMatS0=     95 NMatT0=    0 NMatD0=    1 NMtDS0=    0 NMtDT0=    0
 Symmetry not used in FoFCou.
 Two-electron integral symmetry not used.
          MDV=     536870912 using IRadAn=       1.
          Solving linear equations separately, MaxMat=       0.
          There are    48 degrees of freedom in the 1st order CPHF.  IDoFFX=5 NUNeed=    48.
 LinEq1:  Iter=  0 NonCon=    48 RMS=4.77D-01 Max=7.90D+00 NDo=    48
 AX will form    48 AO Fock derivatives at one time.
 LinEq1:  Iter=  1 NonCon=    48 RMS=4.17D-02 Max=2.36D-01 NDo=    48
 LinEq1:  Iter=  2 NonCon=    48 RMS=6.68D-03 Max=4.27D-02 NDo=    48
 LinEq1:  Iter=  3 NonCon=    48 RMS=1.25D-03 Max=9.42D-03 NDo=    48
 LinEq1:  Iter=  4 NonCon=    48 RMS=1.59D-04 Max=9.03D-04 NDo=    48
 LinEq1:  Iter=  5 NonCon=    48 RMS=2.30D-05 Max=1.10D-04 NDo=    48
 LinEq1:  Iter=  6 NonCon=    46 RMS=3.31D-06 Max=2.13D-05 NDo=    48
 LinEq1:  Iter=  7 NonCon=    14 RMS=6.70D-07 Max=6.91D-06 NDo=    48
 LinEq1:  Iter=  8 NonCon=     3 RMS=1.16D-07 Max=8.89D-07 NDo=    48
 LinEq1:  Iter=  9 NonCon=     2 RMS=2.71D-08 Max=1.91D-07 NDo=    48
 LinEq1:  Iter= 10 NonCon=     0 RMS=4.12D-09 Max=2.07D-08 NDo=    48
 Linear equations converged to 1.000D-08 1.000D-07 after    10 iterations.
 FullF1:  Do perturbations      1 to       3.
 Isotropic polarizability for W=    0.000000       71.36 Bohr**3.
 End of Minotr F.D. properties file   721 does not exist.
 End of Minotr F.D. properties file   722 does not exist.
 End of Minotr F.D. properties file   788 does not exist.
 Leave Link 1002 at Sat Dec 13 12:49:29 2025, MaxMem=   536870912 cpu:               0.0 elap:               0.4
 (Enter D:\G16W\l701.exe)
 ... and contract with generalized density number  0.
 Compute integral second derivatives.
 R6Disp: Adding PM7 dispersion energy 2nd derivatives to the Hessian.
 Leave Link  701 at Sat Dec 13 12:49:29 2025, MaxMem=   536870912 cpu:               0.0 elap:               0.2
 (Enter D:\G16W\l702.exe)
 L702 exits ... SP integral derivatives will be done elsewhere.
 Leave Link  702 at Sat Dec 13 12:49:29 2025, MaxMem=   536870912 cpu:               0.0 elap:               0.1
 (Enter D:\G16W\l703.exe)
 Integral derivatives from FoFJK, PRISM(SPDF).
 Compute integral second derivatives, UseDBF=F ICtDFT=           0.
 Calling FoFJK, ICntrl=    100127 FMM=F ISym2X=0 I1Cent= 0 IOpClX= 0 NMat=1 NMatS=1 NMatT=0.
 FoFJK:  IHMeth=43 ICntrl=  100127 DoSepK=F KAlg= 0 I1Cent=           0 FoldK=F
 IRaf=         0 NMat=       1 IRICut=       1 DoRegI=T DoRafI=F ISym2E= 0 IDoP0=3 IntGTp=3.
 FoFCou: FMM=F IPFlag=           0 FMFlag=      100000 FMFlg1=         800
         NFxFlg=           0 DoJE=F BraDBF=F KetDBF=F FulRan=T
         wScrn=  0.000000 ICntrl=    100127 IOpCl=  0 I1Cent=           0 NGrid=           0
         NMat0=    1 NMatS0=      1 NMatT0=    0 NMatD0=    1 NMtDS0=    0 NMtDT0=    0
 Symmetry not used in FoFCou.
 Leave Link  703 at Sat Dec 13 12:49:29 2025, MaxMem=   536870912 cpu:               0.0 elap:               0.1
 (Enter D:\G16W\l716.exe)
 Dipole        =-5.42983592D+00 7.33448873D-01-1.47926750D-05
 Polarizability= 1.55802524D+02-1.50011282D+01 3.21101398D+01
                 6.83053476D-04-4.53501700D-05 2.61744192D+01
 HyperPolar    =-5.51585363D+03 7.37053292D+02-1.58874820D+02
                 3.04051533D+01-6.79471277D-03-6.71799540D-04
                -1.46195072D-02-2.88553521D+01 6.76908323D+00
                 1.34906528D-02
 ***** Axes restored to original set *****
 -------------------------------------------------------------------
 Center     Atomic                   Forces (Hartrees/Bohr)
 Number     Number              X              Y              Z
 -------------------------------------------------------------------
      1        6          -0.000017430    0.000003264    0.000000146
      2        6          -0.000044698   -0.000002209   -0.000000378
      3        7          -0.000026838    0.000021052   -0.000001922
      4        1           0.000001605    0.000002107    0.000000230
      5        1          -0.000000635   -0.000000009   -0.000001038
      6        1           0.000001977    0.000000290    0.000000661
      7        1           0.000001461    0.000000941    0.000001223
      8        1           0.000001627   -0.000000781   -0.000000160
      9        1          -0.000033787   -0.000017231   -0.000008111
     10        1          -0.000033106   -0.000016271    0.000008637
     11        6           0.000504403    0.000068577   -0.000002781
     12       53          -0.000012865    0.000006169   -0.000000358
     13        1          -0.000118693    0.000032926    0.000089515
     14        1          -0.000118483    0.000031090   -0.000085272
     15        1          -0.000104536   -0.000129916   -0.000000392
 -------------------------------------------------------------------
 Cartesian Forces:  Max     0.000504403 RMS     0.000086801
 FormGI is forming the generalized inverse of G from B-inverse, IUseBI=4.
 GSVD:  received Info=                   1 from GESDD.
 Leave Link  716 at Sat Dec 13 12:49:30 2025, MaxMem=   536870912 cpu:               0.0 elap:               0.1
 (Enter D:\G16W\l103.exe)

 GradGradGradGradGradGradGradGradGradGradGradGradGradGradGradGradGradGrad
 Berny optimization.
 Red2BG is reusing G-inverse.
 Internal  Forces:  Max     0.000192984 RMS     0.000042972
 Search for a saddle point.
 Step number   2 out of a maximum of   86
 All quantities printed in internal units (Hartrees-Bohrs-Radians)
 Swapping is turned off.
 Second derivative matrix not updated -- analytic derivatives used.
 ITU=  0  0
     Eigenvalues ---   -0.05172   0.00057   0.00098   0.00122   0.01868
     Eigenvalues ---    0.01887   0.02084   0.02707   0.03194   0.03338
     Eigenvalues ---    0.03445   0.03683   0.03849   0.03876   0.04100
     Eigenvalues ---    0.06000   0.07301   0.08233   0.08249   0.09747
     Eigenvalues ---    0.11330   0.11580   0.12014   0.12738   0.13358
     Eigenvalues ---    0.16139   0.18587   0.22539   0.22730   0.24846
     Eigenvalues ---    0.25563   0.25689   0.25723   0.26448   0.26657
     Eigenvalues ---    0.27242   0.28284   0.38309   0.45922
 Eigenvectors required to have negative eigenvalues:
                          R10       R11       A19       A20       A21
   1                    0.69966  -0.55090  -0.24537  -0.24536  -0.24476
                          A24       A23       A22       R17       R15
   1                    0.07426   0.07425   0.07393  -0.04082  -0.03421
 RFO step:  Lambda0=1.644999641D-06 Lambda=-8.32139733D-07.
 Linear search not attempted -- option 19 set.
 Iteration  1 RMS(Cart)=  0.00058144 RMS(Int)=  0.00000024
 Iteration  2 RMS(Cart)=  0.00000022 RMS(Int)=  0.00000014
 ITry= 1 IFail=0 DXMaxC= 2.29D-03 DCOld= 1.00D+10 DXMaxT= 3.00D-01 DXLimC= 3.00D+00 Rises=F
 Variable       Old X    -DE/DX   Delta X   Delta X   Delta X     New X
                                 (Linear)    (Quad)   (Total)
    R1        2.87926   0.00001   0.00000  -0.00007  -0.00007   2.87919
    R2        2.07289   0.00000   0.00000   0.00001   0.00001   2.07290
    R3        2.07980   0.00000   0.00000   0.00005   0.00005   2.07986
    R4        2.07289   0.00000   0.00000   0.00001   0.00001   2.07290
    R5        2.82733   0.00003   0.00000   0.00030   0.00030   2.82763
    R6        2.10709   0.00000   0.00000   0.00002   0.00002   2.10711
[...]
   xxx       -0.557261D+04     -0.481430D+02     -0.178678D+02
   xxy       -0.725935D+03     -0.627151D+01     -0.232761D+01
   yxy       -0.154952D+03     -0.133866D+01     -0.496831D+00
   yyy       -0.289840D+02     -0.250399D+00     -0.929332D-01
   xxz       -0.464932D+00     -0.401665D-02     -0.149074D-02
   yxz       -0.695239D-01     -0.600632D-03     -0.222919D-03
   yyz       -0.117264D-01     -0.101307D-03     -0.375991D-04
   zxz       -0.289459D+02     -0.250070D+00     -0.928111D-01
   zyz       -0.667115D+01     -0.576335D-01     -0.213901D-01
   zzz       -0.973973D-02     -0.841437D-04     -0.312291D-04

 ----------------------------------------------------------------------

 Dipole orientation:
     6         -0.22967552          1.75066653          9.01659473
     6         -0.23770969          1.81183780          6.13806760
     7          0.10137106         -0.76968069          5.03521511
     1          1.55339685          1.03194679          9.79184167
     1         -0.48062741          3.66124142          9.79923473
     1         -1.76666304          0.59586094          9.79184081
     1         -2.04482904          2.61574254          5.41145601
     1          1.30050948          3.05515026          5.41145667
     1         -1.31676972         -1.95160000          5.58628700
     1          1.77663130         -1.54528369          5.58628667
     6          0.07844988         -0.59517659          1.52586286
    53          0.04722636         -0.35746217         -3.52568736
     1          1.69900249          0.65392595          1.38844941
     1         -1.80970472          0.19306224          1.38844974
     1          0.34329163         -2.61150427          1.25366315

 Electric dipole moment (dipole orientation):
 (Debye = 10**-18 statcoulomb cm , SI units = C m)
                  (au)            (Debye)         (10**-30 SI)
   Tot        0.549786D+01      0.139742D+02      0.466128D+02
   x          0.000000D+00      0.000000D+00      0.000000D+00
   y          0.000000D+00      0.000000D+00      0.000000D+00
   z          0.549786D+01      0.139742D+02      0.466128D+02

 Dipole polarizability, Alpha (dipole orientation).
 (esu units = cm**3 , SI units = C**2 m**2 J**-1)
 Alpha(0;0):
               (au)            (10**-24 esu)      (10**-40 SI)
   iso        0.713368D+02      0.105710D+02      0.117619D+02
   aniso      0.129312D+03      0.191621D+02      0.213207D+02
   xx         0.262482D+02      0.388959D+01      0.432775D+01
   yx        -0.538921D+00     -0.798598D-01     -0.888560D-01
   yy         0.302804D+02      0.448709D+01      0.499257D+01
   zx        -0.254327D+00     -0.376874D-01     -0.419329D-01
   zy         0.193625D+01      0.286923D+00      0.319245D+00
   zz         0.157482D+03      0.233364D+02      0.259653D+02

 First dipole hyperpolarizability, Beta (dipole orientation).
 ||, _|_  parallel and perpendicular components, (z) with respect to z axis,
 vector components x,y,z.  Values do not include the 1/n! factor of 1/2.
 (esu units = statvolt**-1 cm**4 , SI units = C**3 m**3 J**-2)
 Beta(0;0,0):
               (au)            (10**-30 esu)      (10**-50 SI)
   || (z)     0.348400D+04      0.300990D+02      0.111710D+02
   _|_(z)     0.116133D+04      0.100330D+02      0.372365D+01
   x          0.149720D+01      0.129347D-01      0.480057D-02
   y         -0.114013D+02     -0.984988D-01     -0.365568D-01
   z          0.174200D+05      0.150495D+03      0.558548D+02
   ||         0.348400D+04      0.300990D+02      0.111710D+02
   xxx        0.107398D+01      0.927834D-02      0.344356D-02
   xxy       -0.255162D+01     -0.220440D-01     -0.818141D-02
   yxy       -0.161590D+01     -0.139601D-01     -0.518116D-02
   yyy        0.667742D+01      0.576877D-01      0.214102D-01
   xxz        0.300674D+02      0.259759D+00      0.964069D-01
   yxz       -0.379476D+01     -0.327837D-01     -0.121674D-01
   yyz        0.584595D+02      0.505045D+00      0.187442D+00
   zxz        0.104099D+01      0.899333D-02      0.333778D-02
   zyz       -0.792625D+01     -0.684767D-01     -0.254144D-01
   zzz        0.571814D+04      0.494002D+02      0.183344D+02

 ----------------------------------------------------------------------
 1|1|UNPC-HS-R-MBKE-2023|Freq|RPM7|ZDO|C3H10I1N1|15816|13-Dec-2025|0||#
 P Geom=AllCheck Guess=TCheck SCRF=Check GenChk RPM7/ZDO Freq||title: E
 tNH2_Fine_TS||0,1|C,-4.8525070446,0.3036792321,0.0000017753|C,-3.34654
 39031,0.5348380415,0.0001383771|N,-2.5881209199,-0.7550308235,-0.00019
 19123|H,-5.1940351158,-0.2458061786,0.8858248653|H,-5.3961970156,1.260
 6265377,0.0002481613|H,-5.1939516001,-0.2453025077,-0.8861657485|H,-3.
 0365811378,1.1269214859,-0.8924203186|H,-3.0366652855,1.1264148052,0.8
 930621752|H,-2.8090295828,-1.3107727688,-0.8258688525|H,-2.8091069227,
 -1.3112410255,0.8251489551|C,-0.7590883043,-0.4203365266,-0.0000112022
 |I,1.8746581841,0.0543093868,0.0002471397|H,-0.7579911062,0.1279246094
 ,0.9364827714|H,-0.7579035523,0.1284571993,-0.936193106|H,-0.475835693
 3,-1.4684944672,-0.0002960581||Version=EM64W-G16RevA.03|State=1-A|HF=0
 .0293791|RMSD=4.066e-010|RMSF=1.102e-007|ZeroPoint=0.1203738|Thermal=0
 .1283634|Dipole=-5.4508402,-0.7174898,-0.0004594|DipoleDeriv=-0.930240
 1,0.0996481,0.000013,0.2332093,-0.6935255,-0.0000141,0.0000509,-0.0000
 204,-0.6051496,0.066708,-0.2030505,-0.0000406,-0.5773822,0.0904194,0.0
 000823,-0.0001467,0.0000999,-0.2953497,-2.3297586,-0.2386384,-0.000158
 8,-0.0634214,-0.474109,-0.0000267,-0.000109,-0.000035,-0.3903319,0.226
 3071,0.0100819,-0.0412893,-0.0152175,0.2017401,0.0021579,-0.0527517,-0
 .0038375,0.2042651,0.22179,-0.0339766,-0.0000097,-0.0809922,0.2373027,
 0.0000005,-0.000023,0.0000027,0.2220982,0.2262982,0.0100581,0.0412971,
 -0.0152473,0.2017391,-0.0021607,0.0527451,0.003837,0.204275,0.1246708,
 0.043375,-0.0131362,-0.0186127,0.1560846,-0.0567558,0.0571351,-0.03286
 38,0.2068087,0.1246749,0.0433645,0.0131531,-0.0185856,0.1560338,0.0567
 252,-0.0571534,0.0328391,0.2068555,0.0723049,-0.0224305,-0.0532835,0.0
 708485,0.2103503,0.0441242,0.1062052,0.1121039,0.2902016,0.0723099,-0.
 0224502,0.0532503,0.0709129,0.2104389,-0.0441628,-0.1061854,-0.1121513
 ,0.2901079,5.0902957,0.7024464,0.0004481,0.9448085,-0.1056209,0.000074
 4,0.0005168,0.000063,-0.2113959,-2.2373568,-0.196765,-0.0001287,-0.287
 3905,-0.7244287,-0.0000245,-0.0001544,-0.0000203,-0.6854959,-0.2331121
 ,-0.0410154,0.0256281,-0.1441477,0.1440771,0.039945,-0.1229358,0.01294
 23,0.2089534,-0.2331212,-0.0409996,-0.0256928,-0.1442139,0.1441072,-0.
 0399954,0.1228124,-0.012983,0.2089324,-0.2617859,-0.1096522,-0.0000503
 ,0.0454194,0.2453941,0.0000306,-0.0000061,0.0000234,0.145225|Polar=155
 .8220278,14.5627444,32.0110281,0.0102189,0.0023386,26.1774606|HyperPol
 ar=-5572.606285,-725.9350913,-154.9517411,-28.9839982,-0.4649315,-0.06
 95239,-0.0117264,-28.9459297,-6.6711451,-0.0097397|PG=C01 [X(C3H10I1N1
 )]|NImag=1||0.44740645,0.01056518,0.41034465,0.00000478,0.00000072,0.4
 0952417,-0.17374400,-0.02892035,-0.00001344,0.46070964,-0.02905293,-0.
 06489189,-0.00000192,0.00609960,0.45405862,-0.00001347,-0.00000192,-0.
 06292549,0.00000291,0.00000545,0.43587345,-0.04398985,0.03655776,0.000
 00806,-0.09890575,0.04431392,0.00001171,0.27647415,0.01954419,-0.00305
 361,-0.00000138,0.07097074,-0.17104623,-0.00002232,-0.05324742,0.48983
 706,0.00000324,-0.00000057,0.00503923,0.00001927,-0.00002357,-0.080619
 07,-0.00002322,0.00000885,0.44982536,-0.05336250,-0.02602779,0.0410546
 4,-0.02622867,-0.01770248,0.02446357,0.00100190,-0.00013331,0.00042109
 ,0.07278354,-0.02810013,-0.08200724,0.07137741,-0.01042233,-0.00117506
 ,0.00654121,0.00005188,-0.00033282,-0.00027172,0.03775466,0.09281604,0
 .04340810,0.07117275,-0.15418160,0.01131093,0.00412626,-0.00152457,-0.
 00059432,-0.00006836,-0.00028364,-0.05717133,-0.09097676,0.18173049,-0
 .07779018,0.07233531,0.00001864,-0.03352582,0.02435585,0.00000519,-0.0
 0362087,0.00042890,-0.00000005,0.00556098,-0.00081832,-0.00061484,0.10
 606698,0.07572528,-0.17160144,-0.00003468,0.01028518,0.00086838,-0.000
 00022,-0.00216115,0.00050783,0.00000004,0.00545610,-0.01726120,0.00855
 656,-0.09561476,0.20348661,0.00001960,-0.00003484,-0.03705164,0.000001
 19,0.00000044,0.00334618,-0.00000078,0.00000017,-0.00000692,-0.0060012
 6,0.02000731,-0.00115254,-0.00002384,0.00004334,0.03517528,-0.05335454
 ,-0.02599774,-0.04105992,-0.02622531,-0.01768818,-0.02447595,0.0010018
 8,-0.00013308,-0.00042104,0.00531542,0.00141711,0.00291952,0.00556035,
 0.00545349,0.00600500,0.07277277,-0.02806872,-0.08192622,-0.07133897,-
 0.01041529,-0.00116899,-0.00654199,0.00005151,-0.00033301,0.00027170,0
 .00141812,0.00780277,0.00691297,-0.00081678,-0.01724496,-0.02001653,0.
 03771358,0.09271262,-0.04341455,-0.07113412,-0.15427057,-0.01131918,-0
 .00412772,-0.00153400,0.00059447,0.00006832,-0.00028344,-0.00291578,-0
 .00689372,-0.02581930,0.00061501,-0.00856519,-0.00116816,0.05718251,0.
 09092970,0.18184468,-0.02546423,-0.01698773,0.02320055,-0.04840029,-0.
 02598228,0.03894397,0.00374986,0.01239191,-0.01135234,-0.00291643,-0.0
 0048079,-0.00013859,-0.00081843,-0.00007135,0.00058260,-0.00019379,-0.
 00055475,0.00021092,0.07001287,-0.01120385,-0.00255758,0.00777869,-0.0
 2361514,-0.07801533,0.06263862,0.00237595,-0.03574942,0.02846033,-0.00
 057297,0.00020577,0.00024823,0.00002293,0.00056413,-0.00011321,-0.0006
 4436,-0.00012381,-0.00002122,0.02693595,0.11417276,0.01090486,0.004519
 60,-0.00237070,0.03759808,0.07242120,-0.14687711,-0.00320628,0.0126704
 7,-0.00190534,-0.00006963,0.00022395,0.00005517,0.00060713,-0.00023234
 ,0.00028670,-0.00017280,-0.00004737,0.00074671,-0.04827491,-0.09388867
 ,0.17378985,-0.02546102,-0.01697413,-0.02321237,-0.04839308,-0.0259533
 6,-0.03894942,0.00374848,0.01238666,0.01135991,-0.00019379,-0.00055463
 ,-0.00021132,-0.00081831,-0.00007104,-0.00058275,-0.00291645,-0.000480
 84,0.00013804,0.00545060,0.00135053,0.00327855,0.07000377,-0.01119692,
 -0.00255060,-0.00777985,-0.02358790,-0.07793870,-0.06260172,0.00237682
 ,-0.03572607,-0.02847930,-0.00064445,-0.00012384,0.00002067,0.00002326
 ,0.00056393,0.00011337,-0.00057298,0.00020604,-0.00024820,0.00135191,0
 .00671148,0.00506096,0.02689970,0.11406621,-0.01091339,-0.00452130,-0.
 00238090,-0.03760219,-0.07238453,-0.14696096,0.00320816,-0.01268850,-0
 .00192732,0.00017235,0.00004683,0.00074674,-0.00060722,0.00023249,0.00
 028679,0.00006903,-0.00022391,0.00005492,-0.00327493,-0.00504289,-0.02
 489836,0.04828040,0.09385731,0.17390551,-0.00018686,-0.00043289,0.0001
 6473,0.00468069,0.01523517,0.01759664,-0.05722168,-0.02845304,-0.04917
 330,-0.00022854,0.00034681,0.00025715,-0.00010665,0.00008152,-0.000018
 03,-0.00060370,0.00049553,-0.00019361,0.00063234,-0.00037608,0.0001281
 2,-0.00134839,0.00279445,-0.00082745,0.05567981,-0.00002847,0.00018506
 ,0.00002366,0.00004561,-0.03250665,-0.02886296,-0.01523185,-0.10582497
 ,-0.07759935,0.00013579,0.00000792,-0.00009333,-0.00007127,-0.00007132
 ,-0.00005479,0.00058795,0.00005748,0.00006033,0.00017558,-0.00183314,-
 0.00043785,0.00227377,-0.00362012,0.00031225,0.01486347,0.13199513,0.0
 0000506,-0.00016318,-0.00073874,0.00551184,-0.01183888,0.00034698,-0.0
 2696806,-0.06886455,-0.16892077,0.00024843,-0.00010732,-0.00001970,0.0
 0007938,-0.00004398,0.00012246,0.00020188,-0.00004218,0.00044521,-0.00
 011137,0.00001502,0.00085768,-0.00050112,0.00027303,0.00019926,0.03672
 116,0.09603087,0.19790703,-0.00018684,-0.00043281,-0.00016493,0.004682
 85,0.01524404,-0.01758759,-0.05722881,-0.02848738,0.04916761,-0.000603
 70,0.00049541,0.00019379,-0.00010665,0.00008151,0.00001805,-0.00022850
 ,0.00034695,-0.00025697,-0.00134851,0.00279400,0.00082889,0.00063234,-
 0.00037600,-0.00012836,0.00566766,0.00386405,-0.00729231,0.05568669,-0
 .00002846,0.00018498,-0.00002314,0.00004604,-0.03252973,0.02884431,-0.
 01525442,-0.10590807,0.07763366,0.00058807,0.00005750,-0.00006049,-0.0
 0007123,-0.00007137,0.00005467,0.00013592,0.00000781,0.00009336,0.0022
 7352,-0.00361979,-0.00031421,0.00017548,-0.00183338,0.00043634,0.00386
 118,0.01314969,-0.01350869,0.01489330,0.13210409,-0.00000502,0.0001636
 7,-0.00073867,-0.00551141,0.01182166,0.00036789,0.02696988,0.06889762,
 -0.16883054,-0.00020164,0.00004201,0.00044520,-0.00007944,0.00004388,0
 .00012251,-0.00024837,0.00010737,-0.00001963,0.00050227,-0.00027493,0.
 00019905,0.00011145,-0.00001658,0.00085792,0.00729794,0.01353411,-0.03
 101796,-0.03672604,-0.09606680,0.19779119,0.01181724,-0.00778550,-0.00
 000167,-0.00827762,0.01647499,0.00000424,0.08268072,0.01101761,0.00000
 842,-0.00220868,0.00050815,0.00118688,-0.00069466,0.00163517,0.0000004
 3,-0.00220857,0.00050882,-0.00118680,-0.00002297,0.00417552,-0.0026479
 7,-0.00002324,0.00417404,0.00265036,0.00169774,-0.00583597,-0.00945838
 ,0.00169580,-0.00584159,0.00945521,-0.10808102,0.00311983,-0.00253382,
 -0.00000068,0.01012174,0.00494738,0.00000163,0.01861210,-0.02756425,0.
 00000163,-0.00048459,-0.00002865,0.00028077,0.00009077,0.00039632,0.00
 000013,-0.00048457,-0.00002849,-0.00028080,0.00041346,0.00054830,-0.00
 041927,0.00041326,0.00054820,0.00041971,-0.00632113,-0.00175784,-0.002
 12003,-0.00632765,-0.00176061,0.00211831,-0.09333515,0.41208077,0.0000
 0142,-0.00000119,0.00036728,0.00000244,0.00000193,0.00086444,0.0000105
 8,0.00000127,-0.03023225,-0.00002003,-0.00000132,-0.00006167,0.,0.0000
 0020,-0.00003716,0.00001955,0.00000139,-0.00006194,-0.00028710,0.00025
 560,-0.00015905,0.00028735,-0.00025481,-0.00015869,-0.01113229,-0.0027
 6118,0.00021790,0.01112884,0.00275951,0.00022259,-0.00005162,-0.000008
 88,0.42799520,-0.00370179,0.00200812,0.00000039,-0.00031153,-0.0033193
 5,-0.00000096,-0.02757208,-0.00330027,-0.00000232,0.00071359,-0.000108
 76,-0.00034995,0.00035235,-0.00051284,-0.00000013,0.00071356,-0.000108
 96,0.00034996,0.00014951,-0.00097015,0.00085948,0.00014960,-0.00096966
 ,-0.00086000,-0.00180842,0.00069489,0.00148827,-0.00180824,0.00069575,
 -0.00148802,0.05487892,0.01065954,0.00000587,0.04273392,-0.00069574,0.
 00063377,0.00000011,-0.00025826,-0.00072007,-0.00000027,-0.00524424,0.
 00125057,-0.00000045,0.00012716,-0.00005334,-0.00003818,0.00003046,-0.
 00015321,-0.00000004,0.00012715,-0.00005335,0.00003819,-0.00010756,-0.
 00028792,0.00019187,-0.00010750,-0.00028779,-0.00019196,-0.00008028,0.
 00001090,0.00021352,-0.00008002,0.00001106,-0.00021339,0.01123160,-0.0
 0376046,0.00000111,0.00647400,0.00628684,-0.00000038,0.00000024,0.0001
 3583,-0.00000010,-0.00000042,0.00019783,-0.00000287,-0.00000036,0.0019
 5830,0.00000042,0.00001859,-0.00005651,0.00000003,-0.00000006,-0.00002
 436,-0.00000027,-0.00001859,-0.00005646,0.00007477,0.00003601,-0.00014
 409,-0.00007480,-0.00003618,-0.00014431,0.00041117,0.00006899,-0.00022
 776,-0.00041136,-0.00006879,-0.00022810,0.00000604,0.00000108,-0.00580
 336,0.00000359,0.00000059,0.00527737,-0.00056164,0.00058459,0.00008857
 ,-0.00188138,-0.00039519,-0.00064975,-0.02433244,-0.01301309,-0.014872
 39,0.00010219,-0.00005047,-0.00006725,-0.00000368,-0.00006986,-0.00000
 996,0.00012334,-0.00003970,0.00004916,-0.00012266,-0.00017810,0.000005
 26,-0.00062200,0.00019198,0.00001997,-0.00323643,-0.00046522,0.0004072
 7,-0.00157605,-0.00087335,-0.00016927,-0.00679623,0.00782171,0.0031116
 1,-0.02272729,-0.00040156,0.00675654,0.05365061,-0.00015200,-0.0002247
 5,-0.00007426,0.00016530,0.00022253,-0.00002369,-0.00950185,-0.0031901
 3,-0.00478190,0.00001482,0.00003653,-0.00000404,0.00007082,0.00000534,
 0.00002151,0.00001513,0.00002558,0.00003571,0.00016478,0.00001339,0.00
 018336,0.00043046,0.00005432,-0.00003104,-0.00057638,0.00006326,-0.000
 03588,-0.00106959,-0.00026976,-0.00005070,0.00765429,-0.08575131,-0.07
 797655,-0.00158877,0.00091989,-0.00021471,0.00278836,0.09363602,0.0000
 8143,-0.00013581,-0.00018622,-0.00054059,0.00031369,-0.00029459,-0.008
 39569,-0.00365539,-0.00248415,0.00001400,0.00000539,0.00008384,0.00001
 385,0.00004668,0.00004597,-0.00000075,0.00000534,0.00001943,-0.0001502
 3,0.00001689,0.00003820,-0.00009786,0.00013003,0.00034606,0.00012415,-
 0.00011332,0.00005640,0.00043115,0.00007297,0.00054753,0.00268389,-0.0
 7834293,-0.17589277,0.00461738,-0.00059720,-0.00109883,0.00043663,0.09
 526958,0.19993126,-0.00056162,0.00058463,-0.00008827,-0.00188150,-0.00
 039553,0.00064938,-0.02433462,-0.01302189,0.01486294,0.00012335,-0.000
 03967,-0.00004918,-0.00000368,-0.00006986,0.00000992,0.00010218,-0.000
 05050,0.00006722,-0.00062201,0.00019200,-0.00001995,-0.00012268,-0.000
 17809,-0.00000537,-0.00157603,-0.00087344,0.00016858,-0.00323638,-0.00
 046499,-0.00040784,-0.00679570,0.00781614,-0.00309134,-0.02272622,-0.0
 0039777,-0.00675879,0.00414774,-0.00005910,-0.00006387,0.05365070,-0.0
 0015196,-0.00022487,0.00007422,0.00016499,0.00022270,0.00002399,-0.009
 50707,-0.00319493,0.00478061,0.00001513,0.00002561,-0.00003570,0.00007
 083,0.00000538,-0.00002152,0.00001483,0.00003653,0.00000401,0.00043040
 ,0.00005438,0.00003092,0.00016472,0.00001351,-0.00018336,-0.00106935,-
 0.00026975,0.00005014,-0.00057631,0.00006317,0.00003583,0.00764851,-0.
 08584025,0.07802848,-0.00158616,0.00091943,0.00021570,-0.00005839,0.00
 831506,-0.00797361,0.00279753,0.09374443,-0.00008155,0.00013585,-0.000
 18612,0.00054054,-0.00031343,-0.00029464,0.00838824,0.00365377,-0.0024
 7717,0.00000077,-0.00000534,0.00001940,-0.00001381,-0.00004671,0.00004
 593,-0.00001399,-0.00000542,0.00008384,0.00009801,-0.00013017,0.000346
 01,0.00015030,-0.00001692,0.00003810,-0.00043195,-0.00007351,0.0005474
 9,-0.00012479,0.00011328,0.00005643,-0.00266373,0.07839487,-0.17580436
 ,-0.00462031,0.00059831,-0.00109944,0.00006627,0.00799075,-0.02182138,
 -0.00044872,-0.09532971,0.19982276,-0.00085881,0.00092347,0.00000022,-
 0.00229811,-0.00123433,-0.00000046,-0.03145179,0.01304921,0.00000219,0
 .00014138,0.00000110,-0.00007961,-0.00005170,-0.00014744,-0.00000004,0
 .00014137,0.00000105,0.00007962,-0.00008576,-0.00028633,0.00018119,-0.
 00008575,-0.00028623,-0.00018136,-0.00204141,-0.00013479,-0.00050054,-
 0.00204154,-0.00013507,0.00050026,-0.01766135,0.04788469,0.00001473,-0
 .01903558,-0.01061740,-0.00000397,0.00383581,0.00164371,0.00084652,0.0
 0383634,0.00164229,-0.00084529,0.06765684,-0.00027550,0.00022365,0.000
 00006,-0.00067953,-0.00032715,-0.00000013,0.00580738,0.00032789,0.0000
 0004,0.00005578,0.00002997,-0.00004126,-0.00003688,0.00000566,0.,0.000
 05578,0.00002994,0.00004128,0.00004694,-0.00008322,0.00003737,0.000046
 93,-0.00008318,-0.00003744,-0.00036889,0.00041445,0.00014217,-0.000369
 40,0.00041451,-0.00014209,0.04777023,-0.20949507,-0.00004556,-0.008067
 44,-0.00471648,-0.00000209,0.00415816,-0.01385606,-0.00504223,0.004160
 44,-0.01387048,0.00503433,-0.05230403,0.24098578,-0.00000012,0.0000001
 2,-0.00003604,-0.00000030,-0.00000016,0.00003311,0.00000013,0.00000038
 ,0.00114834,0.00000440,-0.00000645,0.00001876,-0.00000001,0.,0.0000089
 9,-0.00000436,0.00000646,0.00001879,-0.00002352,0.00002161,0.00003541,
 0.00002353,-0.00002170,0.00003536,-0.00092432,-0.00003394,0.00022439,0
 .00092389,0.00003403,0.00022446,0.00001470,-0.00004555,-0.04145605,-0.
 00000325,-0.00000221,0.00131374,0.00482739,-0.02030823,0.00070928,-0.0
 0482473,0.02030009,0.00072316,-0.00001344,0.00005557,0.03699825||0.000
 00012,0.,0.,-0.00000002,-0.00000008,0.,0.00000016,0.00000008,0.,0.,0.,
 0.,0.,0.,0.,0.,0.,0.,0.,0.,0.,0.,0.,0.,0.00000004,0.00000004,0.0000000
 5,0.00000004,0.00000004,-0.00000005,-0.00000048,-0.00000011,0.00000001
 ,-0.00000027,-0.00000011,0.,0.00000011,-0.00000005,-0.00000013,0.00000
 010,-0.00000004,0.00000012,0.00000021,0.00000024,0.|||@


 ERWIN WITH HIS PSI CAN DO
 CALCULATIONS QUITE A FEW.
 BUT ONE THING HAS NOT BEEN SEEN
 JUST WHAT DOES PSI REALLY MEAN.
 -- WALTER HUCKEL, TRANS. BY FELIX BLOCH
 Job cpu time:       0 days  0 hours  0 minutes  4.0 seconds.
 Elapsed time:       0 days  0 hours  0 minutes  3.0 seconds.
 File lengths (MBytes):  RWF=     11 Int=      0 D2E=      0 Chk=      2 Scr=      1
 Normal termination of Gaussian 16 at Sat Dec 13 12:49:38 2025.
