 Entering Gaussian System, Link 0=g16.exe
 Input=EtNH2_irc.gjf
 Output=EtNH2_irc.log
 Initial command:
 D:\G16W\l1.exe ".\Gau-19616.inp" "EtNH2_irc.log" /scrdir=".\"
 Entering Link 1 = D:\G16W\l1.exe PID=     21692.
  
 Copyright (c) 1988,1990,1992,1993,1995,1998,2003,2009,2016,
            Gaussian, Inc.  All Rights Reserved.
  
 This is part of the Gaussian(R) 16 program.  It is based on
 the Gaussian(R) 09 system (copyright 2009, Gaussian, Inc.),
 the Gaussian(R) 03 system (copyright 2003, Gaussian, Inc.),
 the Gaussian(R) 98 system (copyright 1998, Gaussian, Inc.),
 the Gaussian(R) 94 system (copyright 1995, Gaussian, Inc.),
 the Gaussian 92(TM) system (copyright 1992, Gaussian, Inc.),
 the Gaussian 90(TM) system (copyright 1990, Gaussian, Inc.),
 the Gaussian 88(TM) system (copyright 1988, Gaussian, Inc.),
 the Gaussian 86(TM) system (copyright 1986, Carnegie Mellon
 University), and the Gaussian 82(TM) system (copyright 1983,
 Carnegie Mellon University). Gaussian is a federally registered
 trademark of Gaussian, Inc.
  
 This software contains proprietary and confidential information,
 including trade secrets, belonging to Gaussian, Inc.
  
 This software is provided under written license and may be
 used, copied, transmitted, or stored only in accord with that
 written license.
  
 The following legend is applicable only to US Government
 contracts under FAR:
  
                    RESTRICTED RIGHTS LEGEND
  
 Use, reproduction and disclosure by the US Government is
 subject to restrictions as set forth in subparagraphs (a)
 and (c) of the Commercial Computer Software - Restricted
 Rights clause in FAR 52.227-19.
  
 Gaussian, Inc.
 340 Quinnipiac St., Bldg. 40, Wallingford CT 06492
  
  
 ---------------------------------------------------------------
 Warning -- This program may not be used in any manner that
 competes with the business of Gaussian, Inc. or will provide
 assistance to any competitor of Gaussian, Inc.  The licensee
 of this program is prohibited from giving any competitor of
 Gaussian, Inc. access to this program.  By using this program,
 the user acknowledges that Gaussian, Inc. is engaged in the
 business of creating and licensing software in the field of
 computational chemistry and represents and warrants to the
 licensee that it is not a competitor of Gaussian, Inc. and that
 it will not use this program in any manner prohibited above.
 ---------------------------------------------------------------
  

 Cite this work as:
 Gaussian 16, Revision A.03,
 M. J. Frisch, G. W. Trucks, H. B. Schlegel, G. E. Scuseria, 
 M. A. Robb, J. R. Cheeseman, G. Scalmani, V. Barone, 
 G. A. Petersson, H. Nakatsuji, X. Li, M. Caricato, A. V. Marenich, 
 J. Bloino, B. G. Janesko, R. Gomperts, B. Mennucci, H. P. Hratchian, 
 J. V. Ortiz, A. F. Izmaylov, J. L. Sonnenberg, D. Williams-Young, 
 F. Ding, F. Lipparini, F. Egidi, J. Goings, B. Peng, A. Petrone, 
 T. Henderson, D. Ranasinghe, V. G. Zakrzewski, J. Gao, N. Rega, 
 G. Zheng, W. Liang, M. Hada, M. Ehara, K. Toyota, R. Fukuda, 
 J. Hasegawa, M. Ishida, T. Nakajima, Y. Honda, O. Kitao, H. Nakai, 
 T. Vreven, K. Throssell, J. A. Montgomery, Jr., J. E. Peralta, 
 F. Ogliaro, M. J. Bearpark, J. J. Heyd, E. N. Brothers, K. N. Kudin, 
 V. N. Staroverov, T. A. Keith, R. Kobayashi, J. Normand, 
 K. Raghavachari, A. P. Rendell, J. C. Burant, S. S. Iyengar, 
 J. Tomasi, M. Cossi, J. M. Millam, M. Klene, C. Adamo, R. Cammi, 
 J. W. Ochterski, R. L. Martin, K. Morokuma, O. Farkas, 
 J. B. Foresman, and D. J. Fox, Gaussian, Inc., Wallingford CT, 2016.
 
 ******************************************
 Gaussian 16:  EM64W-G16RevA.03 17-Dec-2016
                13-Dec-2025 
 ******************************************
 %nproc=6
 Will use up to    6 processors via shared memory.
 %mem=4GB
 ------------------------------------------
 #PM7 IRC(CalcFC, MaxPoints=20, StepSize=5)
 ------------------------------------------
 1/10=4,18=10,26=1,38=1,39=5,42=20,44=3,172=1/1,23;
 2/12=2,17=6,18=5,29=1,40=1/2;
 3/5=2,25=1,41=4200000,71=2,140=1/1,2,3;
 4/35=1/1;
 5/5=2,35=1,38=5/2;
 8/6=4,10=90,11=11/1;
 11/6=1,8=1,9=11,15=111,16=1/1,2,10;
 10/6=1,13=1/2;
 6/7=2,8=2,9=2,10=2,28=1/1;
 7/10=1,18=20,25=1/1,2,3,16;
 1/10=4,18=10,26=1,39=5,42=20,44=3/23(2);
 2/29=1/2;
 99/5=20/99;
 2/29=1/2;
 3/5=2,25=1,41=4200000,71=2,135=20,140=1/1,2,3;
 4/5=5,16=3,35=1/1;
 5/5=2,35=1,38=5/2;
 8/6=4,10=90,11=11/1;
 11/6=1,8=1,9=11,15=111,16=1/1,2,10;
 10/6=1,13=1/2;
 7/10=1,18=20,25=1/1,2,3,16;
 1/18=10,26=1,39=5,42=20,44=3/23(-8);
 2/29=1/2;
 6/7=2,8=2,9=2,10=2,19=2,28=1/1;
 99/5=20,9=1/99;
 Leave Link    1 at Sat Dec 13 15:02:18 2025, MaxMem=   536870912 cpu:               0.0 elap:               0.1
 (Enter D:\G16W\l101.exe)
 ----------------
 title: EtNH2_IRC
 ----------------
 Symbolic Z-matrix:
 Charge =  0 Multiplicity = 1
 C                    -4.83107  -0.29554   0. 
 C                    -3.32589  -0.53175   0. 
 N                    -2.56315   0.75557   0. 
 H                    -5.17071   0.25484  -0.886 
 H                    -5.37797  -1.25066   0. 
 H                    -5.17071   0.25484   0.886 
 H                    -3.01796  -1.12461   0.89274 
 H                    -3.01796  -1.12461  -0.89274 
 H                    -2.78223   1.31229   0.82551 
 H                    -2.78223   1.31229  -0.82551 
 C                    -0.73525   0.41475   0. 
 I                     1.89689  -0.06873   0. 
 H                    -0.73594  -0.13378  -0.93634 
 H                    -0.73595  -0.13378   0.93634 
 H                    -0.44848   1.46195   0. 
 
 ITRead=  0  0  0  0  0  0  0  0  0  0  0  0  0  0  0
 MicOpt= -1 -1 -1 -1 -1 -1 -1 -1 -1 -1 -1 -1 -1 -1 -1
 NAtoms=     15 NQM=       15 NQMF=       0 NMMI=      0 NMMIF=      0
                NMic=       0 NMicF=      0.
                    Isotopes and Nuclear Properties:
 (Nuclear quadrupole moments (NQMom) in fm**2, nuclear magnetic moments (NMagM)
  in nuclear magnetons)

  Atom         1           2           3           4           5           6           7           8           9          10
 IAtWgt=          12          12          14           1           1           1           1           1           1           1
 AtmWgt=  12.0000000  12.0000000  14.0030740   1.0078250   1.0078250   1.0078250   1.0078250   1.0078250   1.0078250   1.0078250
 NucSpn=           0           0           2           1           1           1           1           1           1           1
 AtZEff=   0.0000000   0.0000000   0.0000000   0.0000000   0.0000000   0.0000000   0.0000000   0.0000000   0.0000000   0.0000000
 NQMom=    0.0000000   0.0000000   2.0440000   0.0000000   0.0000000   0.0000000   0.0000000   0.0000000   0.0000000   0.0000000
 NMagM=    0.0000000   0.0000000   0.4037610   2.7928460   2.7928460   2.7928460   2.7928460   2.7928460   2.7928460   2.7928460
 AtZNuc=   6.0000000   6.0000000   7.0000000   1.0000000   1.0000000   1.0000000   1.0000000   1.0000000   1.0000000   1.0000000

  Atom        11          12          13          14          15
 IAtWgt=          12         127           1           1           1
 AtmWgt=  12.0000000 126.9004000   1.0078250   1.0078250   1.0078250
 NucSpn=           0           5           1           1           1
 AtZEff=   0.0000000   0.0000000   0.0000000   0.0000000   0.0000000
 NQMom=    0.0000000 -71.0000000   0.0000000   0.0000000   0.0000000
 NMagM=    0.0000000   2.8132800   2.7928460   2.7928460   2.7928460
 AtZNuc=   6.0000000  53.0000000   1.0000000   1.0000000   1.0000000
 Leave Link  101 at Sat Dec 13 15:02:18 2025, MaxMem=   536870912 cpu:               0.0 elap:               0.2
 (Enter D:\G16W\l123.exe)
 IRC-IRC-IRC-IRC-IRC-IRC-IRC-IRC-IRC-IRC-IRC-IRC-IRC-IRC-IRC-IRC-IRC-IRC
 ------------------------------------------------------------------------
 INPUT DATA FOR L123
 ------------------------------------------------------------------------
 GENERAL PARAMETERS:
 Follow reaction path in both directions.
 Maximum points per path      =  20
 Step size                    =   0.050 bohr
 Integration scheme           = HPC                                 
    Redo corrector integration= Yes                                 
    DWI Weight Power          =  2
    DWI will use Hessian update vectors when possible.
    Max correction cycles     =  20
 Initial Hessian              = CalcFC
 Hessian evaluation           = All updating
 Hessian updating method      = Bofill                              
 ------------------------------------------------------------------------
 IRC-IRC-IRC-IRC-IRC-IRC-IRC-IRC-IRC-IRC-IRC-IRC-IRC-IRC-IRC-IRC-IRC-IRC
 Leave Link  123 at Sat Dec 13 15:02:18 2025, MaxMem=   536870912 cpu:               0.0 elap:               0.1
 (Enter D:\G16W\l202.exe)
                          Input orientation:                          
 ---------------------------------------------------------------------
 Center     Atomic      Atomic             Coordinates (Angstroms)
 Number     Number       Type             X           Y           Z
 ---------------------------------------------------------------------
      1          6           0       -4.831069   -0.295540    0.000000
      2          6           0       -3.325890   -0.531747    0.000000
      3          7           0       -2.563146    0.755572    0.000000
      4          1           0       -5.170713    0.254836   -0.885995
      5          1           0       -5.377965   -1.250659    0.000000
      6          1           0       -5.170712    0.254835    0.885996
      7          1           0       -3.017955   -1.124613    0.892741
      8          1           0       -3.017955   -1.124612   -0.892742
      9          1           0       -2.782228    1.312286    0.825509
     10          1           0       -2.782228    1.312286   -0.825509
     11          6           0       -0.735246    0.414747    0.000000
     12         53           0        1.896894   -0.068727    0.000000
     13          1           0       -0.735944   -0.133780   -0.936338
     14          1           0       -0.735945   -0.133782    0.936338
     15          1           0       -0.448481    1.461950    0.000001
 ---------------------------------------------------------------------
                    Distance matrix (angstroms):
                    1          2          3          4          5
     1  C    0.000000
     2  C    1.523600   0.000000
     3  N    2.499662   1.496318   0.000000
     4  H    1.096932   2.192504   2.799130   0.000000
     5  H    1.100612   2.174361   3.456612   1.759107   0.000000
     6  H    1.096932   2.192503   2.799130   1.771991   1.759106
     7  H    2.184429   1.115034   2.130477   3.114667   2.526365
     8  H    2.184429   1.115034   2.130477   2.556812   2.526366
     9  H    2.732091   2.092245   1.019506   3.122868   3.740054
    10  H    2.732091   2.092245   1.019506   2.612799   3.740054
    11  C    4.156955   2.758131   1.859403   4.525917   4.932385
    12  I    6.731785   5.243268   4.535573   7.130270   7.370247
    13  H    4.203920   2.782612   2.237486   4.452048   4.865440
    14  H    4.203919   2.782610   2.237486   4.810311   4.865439
    15  H    4.721848   3.500616   2.229524   4.953947   5.626550
                    6          7          8          9         10
     6  H    0.000000
     7  H    2.556811   0.000000
     8  H    3.114666   1.785483   0.000000
     9  H    2.612799   2.449197   2.991058   0.000000
    10  H    3.122869   2.991058   2.449196   1.651018   0.000000
    11  C    4.525916   2.894370   2.894369   2.382683   2.382683
    12  I    7.130269   5.105646   5.105646   4.948014   4.948014
    13  H    4.810311   3.087856   2.488217   3.063085   2.508120
    14  H    4.452046   2.488216   3.087855   2.508121   3.063085
    15  H    4.953946   3.753597   3.753597   2.479967   2.479968
                   11         12         13         14         15
    11  C    0.000000
    12  I    2.676174   0.000000
    13  H    1.085178   2.795138   0.000000
    14  H    1.085179   2.795139   1.872676   0.000000
    15  H    1.085757   2.800671   1.872357   1.872358   0.000000
 Symmetry turned off by external request.
 Stoichiometry    C3H10IN
 Framework group  C1[X(C3H10IN)]
 Deg. of freedom    39
 Full point group                 C1      NOp   1
 Rotational constants (GHZ):          16.1488961           0.4734889           0.4653636
 Leave Link  202 at Sat Dec 13 15:02:18 2025, MaxMem=   536870912 cpu:               0.0 elap:               0.1
 (Enter D:\G16W\l301.exe)
 Standard basis: VSTO-6G (5D, 7F)
 Ernie: Thresh=  0.10000D-02 Tol=  0.10000D-05 Strict=F.
 EHB=         0.000000000 Number of Hydrogen Bonds=     0
  NNHCO=     0 NNPyr=     0 NCTC=     0               EPep=         0.000000000
    EC=        90.635396822  ECS=         2.178831481   EG=         0.404019359
   EHC=         0.000498128  EAt=       -31.688835444  AtH=         1.868030760
 EPDDG=         0.000000000  ECC=        93.218745790 EAtT=        33.556866204
  EHyb=         0.000000000
    35 basis functions,   216 primitive gaussians,    36 cartesian basis functions
    17 alpha electrons       17 beta electrons
       nuclear repulsion energy       126.7756119939 Hartrees.
 IExCor=    0 DFT=F Ex=HF Corr=None ExCW=0 ScaHFX=  1.000000
 ScaDFX=  1.000000  1.000000  1.000000  1.000000 ScalE2=  1.000000  1.000000
 IRadAn=      5 IRanWt=     -1 IRanGd=            0 ICorTp=0 IEmpDi=251
 Integral buffers will be    131072 words long.
 Regular integral format.
 Two-electron integral symmetry is turned off.
 R6Disp:  PM7 Dispersion energy=       -0.0019015311 Hartrees.
 Nuclear repulsion after empirical dispersion term =      126.7737104628 Hartrees.
 Leave Link  301 at Sat Dec 13 15:02:18 2025, MaxMem=   536870912 cpu:               0.0 elap:               0.1
 (Enter D:\G16W\l302.exe)
 Do NDO integrals.
 NPDir=0 NMtPBC=     1 NCelOv=     1 NCel=       1 NClECP=     1 NCelD=      1
         NCelK=      1 NCelE2=     1 NClLst=     1 CellRange=     0.0.
 One-electron integrals computed using PRISM.
 NBasis=    35 RedAO= F EigKep=  0.00D+00  NBF=    35
 NBsUse=    35 1.00D-04 EigRej=  0.00D+00 NBFU=    35
 Leave Link  302 at Sat Dec 13 15:02:19 2025, MaxMem=   536870912 cpu:               1.0 elap:               0.2
 (Enter D:\G16W\l303.exe)
 DipDrv:  MaxL=1.
 Leave Link  303 at Sat Dec 13 15:02:19 2025, MaxMem=   536870912 cpu:               0.0 elap:               0.1
 (Enter D:\G16W\l401.exe)
 Nonelectrostatic core Hamiltonian diagonalized for initial guess.
 JPrj=0 DoOrth=F DoCkMO=F.
 Leave Link  401 at Sat Dec 13 15:02:19 2025, MaxMem=   536870912 cpu:               0.0 elap:               0.2
 (Enter D:\G16W\l502.exe)
 Keep J ints in memory in canonical form, NReq=1851606.
 FoFCou: FMM=F IPFlag=           0 FMFlag=           0 FMFlg1=           0
         NFxFlg=           0 DoJE=F BraDBF=F KetDBF=F FulRan=T
         wScrn=  0.000000 ICntrl=       600 IOpCl=  2 I1Cent=           0 NGrid=           0
         NMat0=    1 NMatS0=     95 NMatT0=    0 NMatD0=    1 NMtDS0=    0 NMtDT0=    0
 Symmetry not used in FoFCou.
 Two-electron integral symmetry not used.
 Closed shell SCF:
 Using DIIS extrapolation, IDIIS=  1040.
 Overlap will be assumed to be unity.
 NGot=   536870912 LenX=   536803851 LenY=   536802114
 Requested convergence on RMS density matrix=1.00D-08 within 128 cycles.
 Requested convergence on MAX density matrix=1.00D-06.
 Requested convergence on             energy=1.00D-06.
 No special actions if energy rises.

 Cycle   1  Pass 1  IDiag  1:
 E= 0.533094596924556    
 DIIS: error= 3.65D-02 at cycle   1 NSaved=   1.
 NSaved= 1 IEnMin= 1 EnMin= 0.533094596924556     IErMin= 1 ErrMin= 3.65D-02
 ErrMax= 3.65D-02  0.00D+00 EMaxC= 1.00D-01 BMatC= 9.12D-02 BMatP= 9.12D-02
 IDIUse=3 WtCom= 6.35D-01 WtEn= 3.65D-01
 Coeff-Com:  0.100D+01
 Coeff-En:   0.100D+01
 Coeff:      0.100D+01
 GapD=    2.000 DampG=2.000 DampE=0.500 DampFc=1.0000 IDamp=-1.
 RMSDP=1.88D-02 MaxDP=1.56D-01              OVMax= 0.00D+00

 Cycle   2  Pass 1  IDiag  1:
 E= 0.142983487284482     Delta-E=       -0.390111109640 Rises=F Damp=F
 DIIS: error= 1.82D-02 at cycle   2 NSaved=   2.
 NSaved= 2 IEnMin= 2 EnMin= 0.142983487284482     IErMin= 2 ErrMin= 1.82D-02
 ErrMax= 1.82D-02  0.00D+00 EMaxC= 1.00D-01 BMatC= 1.96D-02 BMatP= 9.12D-02
 IDIUse=3 WtCom= 8.18D-01 WtEn= 1.82D-01
 Coeff-Com: -0.625D+00 0.163D+01
 Coeff-En:   0.000D+00 0.100D+01
 Coeff:     -0.512D+00 0.151D+01
 RMSDP=1.28D-02 MaxDP=1.02D-01 DE=-3.90D-01 OVMax= 0.00D+00

 Cycle   3  Pass 1  IDiag  3:
 E= 0.378622040892935E-01 Delta-E=       -0.105121283195 Rises=F Damp=F
 DIIS: error= 5.26D-03 at cycle   3 NSaved=   3.
 NSaved= 3 IEnMin= 3 EnMin= 0.378622040892935E-01 IErMin= 3 ErrMin= 5.26D-03
 ErrMax= 5.26D-03  0.00D+00 EMaxC= 1.00D-01 BMatC= 1.44D-03 BMatP= 1.96D-02
 IDIUse=3 WtCom= 9.47D-01 WtEn= 5.26D-02
 Coeff-Com:  0.709D-01-0.430D+00 0.136D+01
 Coeff-En:   0.000D+00 0.000D+00 0.100D+01
 Coeff:      0.672D-01-0.407D+00 0.134D+01
 Gap=     0.272 Goal=   None    Shift=    0.000
 RMSDP=3.95D-03 MaxDP=3.33D-02 DE=-1.05D-01 OVMax= 5.16D-02

 Cycle   4  Pass 1  IDiag  3:
 E= 0.298300341065669E-01 Delta-E=       -0.008032169983 Rises=F Damp=F
 DIIS: error= 1.35D-03 at cycle   4 NSaved=   4.
 NSaved= 4 IEnMin= 4 EnMin= 0.298300341065669E-01 IErMin= 4 ErrMin= 1.35D-03
 ErrMax= 1.35D-03  0.00D+00 EMaxC= 1.00D-01 BMatC= 8.14D-05 BMatP= 1.44D-03
 IDIUse=3 WtCom= 9.87D-01 WtEn= 1.35D-02
 Coeff-Com:  0.427D-01-0.946D-01-0.123D+00 0.117D+01
 Coeff-En:   0.000D+00 0.000D+00 0.000D+00 0.100D+01
 Coeff:      0.421D-01-0.933D-01-0.121D+00 0.117D+01
 Gap=     0.268 Goal=   None    Shift=    0.000
 RMSDP=9.03D-04 MaxDP=8.09D-03 DE=-8.03D-03 OVMax= 1.32D-02

 Cycle   5  Pass 1  IDiag  3:
 E= 0.294126613521826E-01 Delta-E=       -0.000417372754 Rises=F Damp=F
 DIIS: error= 4.16D-04 at cycle   5 NSaved=   5.
 NSaved= 5 IEnMin= 5 EnMin= 0.294126613521826E-01 IErMin= 5 ErrMin= 4.16D-04
 ErrMax= 4.16D-04  0.00D+00 EMaxC= 1.00D-01 BMatC= 5.92D-06 BMatP= 8.14D-05
 IDIUse=3 WtCom= 9.96D-01 WtEn= 4.16D-03
 Coeff-Com: -0.169D-01 0.443D-01 0.805D-02-0.517D+00 0.148D+01
 Coeff-En:   0.000D+00 0.000D+00 0.000D+00 0.000D+00 0.100D+01
 Coeff:     -0.168D-01 0.442D-01 0.802D-02-0.515D+00 0.148D+01
 Gap=     0.267 Goal=   None    Shift=    0.000
 RMSDP=2.59D-04 MaxDP=2.54D-03 DE=-4.17D-04 OVMax= 2.22D-03

 Cycle   6  Pass 1  IDiag  3:
 E= 0.293802717885683E-01 Delta-E=       -0.000032389564 Rises=F Damp=F
 DIIS: error= 7.39D-05 at cycle   6 NSaved=   6.
 NSaved= 6 IEnMin= 6 EnMin= 0.293802717885683E-01 IErMin= 6 ErrMin= 7.39D-05
 ErrMax= 7.39D-05  0.00D+00 EMaxC= 1.00D-01 BMatC= 2.03D-07 BMatP= 5.92D-06
 IDIUse=1 WtCom= 1.00D+00 WtEn= 0.00D+00
 Coeff-Com:  0.978D-03-0.202D-02-0.235D-02 0.621D-01-0.319D+00 0.126D+01
 Coeff:      0.978D-03-0.202D-02-0.235D-02 0.621D-01-0.319D+00 0.126D+01
 Gap=     0.267 Goal=   None    Shift=    0.000
 RMSDP=4.42D-05 MaxDP=4.07D-04 DE=-3.24D-05 OVMax= 3.87D-04

 Cycle   7  Pass 1  IDiag  3:
 E= 0.293791901147955E-01 Delta-E=       -0.000001081674 Rises=F Damp=F
 DIIS: error= 2.41D-05 at cycle   7 NSaved=   7.
 NSaved= 7 IEnMin= 7 EnMin= 0.293791901147955E-01 IErMin= 7 ErrMin= 2.41D-05
 ErrMax= 2.41D-05  0.00D+00 EMaxC= 1.00D-01 BMatC= 1.38D-08 BMatP= 2.03D-07
 IDIUse=1 WtCom= 1.00D+00 WtEn= 0.00D+00
 Coeff-Com:  0.311D-03-0.955D-03 0.294D-04-0.462D-02 0.747D-01-0.529D+00
 Coeff-Com:  0.146D+01
 Coeff:      0.311D-03-0.955D-03 0.294D-04-0.462D-02 0.747D-01-0.529D+00
 Coeff:      0.146D+01
 Gap=     0.267 Goal=   None    Shift=    0.000
 RMSDP=1.17D-05 MaxDP=1.31D-04 DE=-1.08D-06 OVMax= 1.14D-04

 Cycle   8  Pass 1  IDiag  3:
 E= 0.293791099051077E-01 Delta-E=       -0.000000080210 Rises=F Damp=F
 DIIS: error= 8.39D-06 at cycle   8 NSaved=   8.
 NSaved= 8 IEnMin= 8 EnMin= 0.293791099051077E-01 IErMin= 8 ErrMin= 8.39D-06
 ErrMax= 8.39D-06  0.00D+00 EMaxC= 1.00D-01 BMatC= 1.23D-09 BMatP= 1.38D-08
 IDIUse=1 WtCom= 1.00D+00 WtEn= 0.00D+00
 Coeff-Com: -0.223D-03 0.629D-03 0.152D-03-0.917D-03-0.233D-01 0.229D+00
 Coeff-Com: -0.859D+00 0.165D+01
 Coeff:     -0.223D-03 0.629D-03 0.152D-03-0.917D-03-0.233D-01 0.229D+00
 Coeff:     -0.859D+00 0.165D+01
 Gap=     0.267 Goal=   None    Shift=    0.000
 RMSDP=4.16D-06 MaxDP=4.98D-05 DE=-8.02D-08 OVMax= 4.39D-05

 Cycle   9  Pass 1  IDiag  3:
 E= 0.293791017998046E-01 Delta-E=       -0.000000008105 Rises=F Damp=F
 DIIS: error= 1.82D-06 at cycle   9 NSaved=   9.
 NSaved= 9 IEnMin= 9 EnMin= 0.293791017998046E-01 IErMin= 9 ErrMin= 1.82D-06
 ErrMax= 1.82D-06  0.00D+00 EMaxC= 1.00D-01 BMatC= 6.92D-11 BMatP= 1.23D-09
 IDIUse=1 WtCom= 1.00D+00 WtEn= 0.00D+00
 Coeff-Com:  0.378D-04-0.877D-04-0.187D-03 0.482D-03 0.475D-02-0.543D-01
 Coeff-Com:  0.235D+00-0.644D+00 0.146D+01
 Coeff:      0.378D-04-0.877D-04-0.187D-03 0.482D-03 0.475D-02-0.543D-01
 Coeff:      0.235D+00-0.644D+00 0.146D+01
 Gap=     0.267 Goal=   None    Shift=    0.000
 RMSDP=9.40D-07 MaxDP=1.08D-05 DE=-8.11D-09 OVMax= 9.82D-06

 Cycle  10  Pass 1  IDiag  3:
 E= 0.293791013872209E-01 Delta-E=       -0.000000000413 Rises=F Damp=F
 DIIS: error= 3.50D-07 at cycle  10 NSaved=  10.
 NSaved=10 IEnMin=10 EnMin= 0.293791013872209E-01 IErMin=10 ErrMin= 3.50D-07
 ErrMax= 3.50D-07  0.00D+00 EMaxC= 1.00D-01 BMatC= 3.29D-12 BMatP= 6.92D-11
 IDIUse=1 WtCom= 1.00D+00 WtEn= 0.00D+00
 Coeff-Com: -0.534D-07-0.886D-05 0.764D-04-0.972D-04-0.887D-03 0.973D-02
 Coeff-Com: -0.463D-01 0.156D+00-0.536D+00 0.142D+01
 Coeff:     -0.534D-07-0.886D-05 0.764D-04-0.972D-04-0.887D-03 0.973D-02
 Coeff:     -0.463D-01 0.156D+00-0.536D+00 0.142D+01
 Gap=     0.267 Goal=   None    Shift=    0.000
 RMSDP=1.97D-07 MaxDP=1.86D-06 DE=-4.13D-10 OVMax= 2.14D-06

 Cycle  11  Pass 1  IDiag  3:
 E= 0.293791013672973E-01 Delta-E=       -0.000000000020 Rises=F Damp=F
 DIIS: error= 5.96D-08 at cycle  11 NSaved=  11.
 NSaved=11 IEnMin=11 EnMin= 0.293791013672973E-01 IErMin=11 ErrMin= 5.96D-08
 ErrMax= 5.96D-08  0.00D+00 EMaxC= 1.00D-01 BMatC= 1.61D-13 BMatP= 3.29D-12
 IDIUse=1 WtCom= 1.00D+00 WtEn= 0.00D+00
 Coeff-Com: -0.227D-05 0.778D-05-0.136D-04-0.987D-05 0.126D-03-0.832D-03
 Coeff-Com:  0.472D-02-0.229D-01 0.112D+00-0.466D+00 0.137D+01
 Coeff:     -0.227D-05 0.778D-05-0.136D-04-0.987D-05 0.126D-03-0.832D-03
 Coeff:      0.472D-02-0.229D-01 0.112D+00-0.466D+00 0.137D+01
 Gap=     0.267 Goal=   None    Shift=    0.000
 RMSDP=4.22D-08 MaxDP=3.45D-07 DE=-1.99D-11 OVMax= 4.85D-07

 Cycle  12  Pass 1  IDiag  3:
 E= 0.293791013661462E-01 Delta-E=       -0.000000000001 Rises=F Damp=F
 DIIS: error= 1.50D-08 at cycle  12 NSaved=  12.
 NSaved=12 IEnMin=12 EnMin= 0.293791013661462E-01 IErMin=12 ErrMin= 1.50D-08
 ErrMax= 1.50D-08  0.00D+00 EMaxC= 1.00D-01 BMatC= 1.01D-14 BMatP= 1.61D-13
 IDIUse=1 WtCom= 1.00D+00 WtEn= 0.00D+00
 Coeff-Com:  0.182D-06-0.542D-06 0.121D-06-0.120D-05 0.230D-04-0.181D-03
 Coeff-Com:  0.544D-03-0.426D-03-0.487D-02 0.564D-01-0.394D+00 0.134D+01
 Coeff:      0.182D-06-0.542D-06 0.121D-06-0.120D-05 0.230D-04-0.181D-03
 Coeff:      0.544D-03-0.426D-03-0.487D-02 0.564D-01-0.394D+00 0.134D+01
 Gap=     0.267 Goal=   None    Shift=    0.000
 RMSDP=1.04D-08 MaxDP=7.82D-08 DE=-1.15D-12 OVMax= 1.16D-07

 Cycle  13  Pass 1  IDiag  3:
 E= 0.293791013669846E-01 Delta-E=        0.000000000001 Rises=F Damp=F
 DIIS: error= 3.42D-09 at cycle  13 NSaved=  13.
 NSaved=13 IEnMin=12 EnMin= 0.293791013661462E-01 IErMin=13 ErrMin= 3.42D-09
 ErrMax= 3.42D-09  0.00D+00 EMaxC= 1.00D-01 BMatC= 5.93D-16 BMatP= 1.01D-14
 IDIUse=1 WtCom= 1.00D+00 WtEn= 0.00D+00
 Coeff-Com:  0.228D-07-0.201D-06 0.116D-05-0.622D-06-0.164D-04 0.149D-03
 Coeff-Com: -0.647D-03 0.194D-02-0.602D-02 0.125D-01 0.347D-01-0.409D+00
 Coeff-Com:  0.137D+01
 Coeff:      0.228D-07-0.201D-06 0.116D-05-0.622D-06-0.164D-04 0.149D-03
 Coeff:     -0.647D-03 0.194D-02-0.602D-02 0.125D-01 0.347D-01-0.409D+00
 Coeff:      0.137D+01
 Gap=     0.267 Goal=   None    Shift=    0.000
 RMSDP=2.54D-09 MaxDP=1.99D-08 DE= 8.38D-13 OVMax= 2.50D-08

 Cycle  14  Pass 2  IDiag  1:
 SCF Done:  E(RPM7) =  0.293791013670E-01 A.U. after   14 cycles
            NFock= 13  Conv=0.25D-08     -V/T= 1.0005
 KE=-5.379969285467D+01 PE=-1.776923664032D+02 EE= 1.047477278964D+02
 Leave Link  502 at Sat Dec 13 15:02:20 2025, MaxMem=   536870912 cpu:               1.0 elap:               0.7
 (Enter D:\G16W\l801.exe)
 Range of M.O.s used for correlation:     1    35
 NBasis=    35 NAE=    17 NBE=    17 NFC=     0 NFV=     0
 NROrb=     35 NOA=    17 NOB=    17 NVA=    18 NVB=    18
 Leave Link  801 at Sat Dec 13 15:02:20 2025, MaxMem=   536870912 cpu:               0.0 elap:               0.1
 (Enter D:\G16W\l1101.exe)
 Using compressed storage, NAtomX=    15.
 Will process     16 centers per pass.
 R6Disp: Adding PM7 dispersion energy 1st derivatives to the gradient.
 Leave Link 1101 at Sat Dec 13 15:02:20 2025, MaxMem=   536870912 cpu:               0.0 elap:               0.1
 (Enter D:\G16W\l1102.exe)
 Symmetrizing basis deriv contribution to polar:
 IMax=3 JMax=2 DiffMx= 0.00D+00
 Leave Link 1102 at Sat Dec 13 15:02:20 2025, MaxMem=   536870912 cpu:               0.0 elap:               0.1
 (Enter D:\G16W\l1110.exe)
 Forming Gx(P) for the SCF density, NAtomX=    15.
 Integral derivatives from FoFJK, PRISM(SPDF).
 Do as many integral derivatives as possible in FoFJK.
 G2DrvN: MDV=     536810820.
 G2DrvN: will do    16 centers at a time, making    1 passes.
 Calling FoFCou, ICntrl=  3107 FMM=F I1Cent=   0 AccDes= 0.00D+00.
 FoFJK:  IHMeth=43 ICntrl=    3107 DoSepK=F KAlg= 0 I1Cent=           0 FoldK=F
 IRaf=         0 NMat=       1 IRICut=       1 DoRegI=T DoRafI=F ISym2E= 0 IDoP0=3 IntGTp=3.
 FoFCou: FMM=F IPFlag=           0 FMFlag=      100000 FMFlg1=           0
         NFxFlg=           0 DoJE=F BraDBF=F KetDBF=F FulRan=T
         wScrn=  0.000000 ICntrl=      3107 IOpCl=  0 I1Cent=           0 NGrid=           0
         NMat0=    1 NMatS0=      1 NMatT0=    0 NMatD0=    1 NMtDS0=    0 NMtDT0=    0
 Symmetry not used in FoFCou.
 End of G2Drv F.D. properties file   721 does not exist.
 End of G2Drv F.D. properties file   722 does not exist.
 End of G2Drv F.D. properties file   788 does not exist.
 Leave Link 1110 at Sat Dec 13 15:02:21 2025, MaxMem=   536870912 cpu:               1.0 elap:               0.1
 (Enter D:\G16W\l1002.exe)
 Minotr:  Closed shell wavefunction.
          IDoAtm=111111111111111
          Direct CPHF calculation.
          Differentiating once with respect to nuclear coordinates.
          Electric field/nuclear overlap derivatives assumed to be zero.
          Requested convergence is 1.0D-08 RMS, and 1.0D-07 maximum.
          NewPWx=T KeepS1=F KeepF1=F KeepIn=T MapXYZ=F SortEE=F KeepMc=T.
 Keep J ints in memory in canonical form, NReq=1853068.
 FoFCou: FMM=F IPFlag=           0 FMFlag=           0 FMFlg1=           0
         NFxFlg=           0 DoJE=F BraDBF=F KetDBF=F FulRan=T
         wScrn=  0.000000 ICntrl=       600 IOpCl=  2 I1Cent=           0 NGrid=           0
         NMat0=    1 NMatS0=     95 NMatT0=    0 NMatD0=    1 NMtDS0=    0 NMtDT0=    0
 Symmetry not used in FoFCou.
 Two-electron integral symmetry not used.
          MDV=     536870912 using IRadAn=       1.
          Solving linear equations separately, MaxMat=       0.
          There are    48 degrees of freedom in the 1st order CPHF.  IDoFFX=5 NUNeed=    48.
 LinEq1:  Iter=  0 NonCon=    45 RMS=2.18D-02 Max=2.47D-01 NDo=    45
 AX will form    48 AO Fock derivatives at one time.
 LinEq1:  Iter=  1 NonCon=    45 RMS=2.15D-03 Max=1.44D-02 NDo=    48
 LinEq1:  Iter=  2 NonCon=    45 RMS=2.91D-04 Max=1.98D-03 NDo=    48
 LinEq1:  Iter=  3 NonCon=    45 RMS=6.09D-05 Max=4.41D-04 NDo=    48
 LinEq1:  Iter=  4 NonCon=    45 RMS=1.08D-05 Max=6.03D-05 NDo=    48
 LinEq1:  Iter=  5 NonCon=    45 RMS=1.33D-06 Max=9.93D-06 NDo=    48
 LinEq1:  Iter=  6 NonCon=    43 RMS=2.23D-07 Max=1.38D-06 NDo=    48
 LinEq1:  Iter=  7 NonCon=    11 RMS=3.47D-08 Max=2.63D-07 NDo=    48
 LinEq1:  Iter=  8 NonCon=     0 RMS=4.98D-09 Max=3.07D-08 NDo=    48
 Linear equations converged to 1.000D-08 1.000D-07 after     8 iterations.
 End of Minotr F.D. properties file   721 does not exist.
 End of Minotr F.D. properties file   722 does not exist.
 End of Minotr F.D. properties file   788 does not exist.
 Leave Link 1002 at Sat Dec 13 15:02:21 2025, MaxMem=   536870912 cpu:               0.0 elap:               0.3
 (Enter D:\G16W\l601.exe)
 Copying SCF densities to generalized density rwf, IOpCl= 0 IROHF=0.

 **********************************************************************

            Population analysis using the SCF density.

 **********************************************************************

 Alpha  occ. eigenvalues --   -1.40129  -1.03071  -0.93887  -0.84687  -0.72834
 Alpha  occ. eigenvalues --   -0.70845  -0.64722  -0.60326  -0.59487  -0.55646
 Alpha  occ. eigenvalues --   -0.55527  -0.52955  -0.49899  -0.49438  -0.28986
 Alpha  occ. eigenvalues --   -0.28696  -0.28694
 Alpha virt. eigenvalues --   -0.02040   0.05484   0.09180   0.12879   0.12930
 Alpha virt. eigenvalues --    0.15417   0.15636   0.16286   0.16528   0.17863
 Alpha virt. eigenvalues --    0.18046   0.18083   0.20051   4.82639   4.82642
 Alpha virt. eigenvalues --    4.82782   4.83647   4.83647
          Condensed to atoms (all electrons):
               1          2          3          4          5          6
     1  C    4.482951   0.000000   0.000000   0.000000   0.000000   0.000000
     2  C    0.000000   4.115387   0.000000   0.000000   0.000000   0.000000
     3  N    0.000000   0.000000   5.462215   0.000000   0.000000   0.000000
     4  H    0.000000   0.000000   0.000000   0.843105   0.000000   0.000000
     5  H    0.000000   0.000000   0.000000   0.000000   0.828487   0.000000
     6  H    0.000000   0.000000   0.000000   0.000000   0.000000   0.843105
     7  H    0.000000   0.000000   0.000000   0.000000   0.000000   0.000000
     8  H    0.000000   0.000000   0.000000   0.000000   0.000000   0.000000
     9  H    0.000000   0.000000   0.000000   0.000000   0.000000   0.000000
    10  H    0.000000   0.000000   0.000000   0.000000   0.000000   0.000000
    11  C    0.000000   0.000000   0.000000   0.000000   0.000000   0.000000
    12  I    0.000000   0.000000   0.000000   0.000000   0.000000   0.000000
    13  H    0.000000   0.000000   0.000000   0.000000   0.000000   0.000000
    14  H    0.000000   0.000000   0.000000   0.000000   0.000000   0.000000
    15  H    0.000000   0.000000   0.000000   0.000000   0.000000   0.000000
               7          8          9         10         11         12
     1  C    0.000000   0.000000   0.000000   0.000000   0.000000   0.000000
     2  C    0.000000   0.000000   0.000000   0.000000   0.000000   0.000000
     3  N    0.000000   0.000000   0.000000   0.000000   0.000000   0.000000
     4  H    0.000000   0.000000   0.000000   0.000000   0.000000   0.000000
     5  H    0.000000   0.000000   0.000000   0.000000   0.000000   0.000000
     6  H    0.000000   0.000000   0.000000   0.000000   0.000000   0.000000
     7  H    0.834737   0.000000   0.000000   0.000000   0.000000   0.000000
     8  H    0.000000   0.834737   0.000000   0.000000   0.000000   0.000000
     9  H    0.000000   0.000000   0.730831   0.000000   0.000000   0.000000
    10  H    0.000000   0.000000   0.000000   0.730831   0.000000   0.000000
    11  C    0.000000   0.000000   0.000000   0.000000   4.048591   0.000000
    12  I    0.000000   0.000000   0.000000   0.000000   0.000000   7.705677
    13  H    0.000000   0.000000   0.000000   0.000000   0.000000   0.000000
    14  H    0.000000   0.000000   0.000000   0.000000   0.000000   0.000000
    15  H    0.000000   0.000000   0.000000   0.000000   0.000000   0.000000
              13         14         15
     1  C    0.000000   0.000000   0.000000
     2  C    0.000000   0.000000   0.000000
     3  N    0.000000   0.000000   0.000000
     4  H    0.000000   0.000000   0.000000
     5  H    0.000000   0.000000   0.000000
     6  H    0.000000   0.000000   0.000000
     7  H    0.000000   0.000000   0.000000
     8  H    0.000000   0.000000   0.000000
     9  H    0.000000   0.000000   0.000000
    10  H    0.000000   0.000000   0.000000
    11  C    0.000000   0.000000   0.000000
    12  I    0.000000   0.000000   0.000000
    13  H    0.845932   0.000000   0.000000
    14  H    0.000000   0.845931   0.000000
    15  H    0.000000   0.000000   0.847484
 Mulliken charges:
               1
     1  C   -0.482951
     2  C   -0.115387
     3  N   -0.462215
     4  H    0.156895
     5  H    0.171513
     6  H    0.156895
     7  H    0.165263
     8  H    0.165263
     9  H    0.269169
    10  H    0.269169
    11  C   -0.048591
    12  I   -0.705677
    13  H    0.154068
    14  H    0.154069
    15  H    0.152516
 Sum of Mulliken charges =   0.00000
 Mulliken charges with hydrogens summed into heavy atoms:
               1
     1  C    0.002351
     2  C    0.215140
     3  N    0.076123
    11  C    0.412062
    12  I   -0.705677
 APT charges:
               1
     1  C   -0.482951
     2  C   -0.115387
     3  N   -0.462215
     4  H    0.156895
     5  H    0.171513
     6  H    0.156895
     7  H    0.165263
     8  H    0.165263
     9  H    0.269169
    10  H    0.269169
    11  C   -0.048591
    12  I   -0.705677
    13  H    0.154068
    14  H    0.154069
    15  H    0.152516
 Sum of APT charges =   0.00000
 APT charges with hydrogens summed into heavy atoms:
               1
     1  C    0.002351
     2  C    0.215140
     3  N    0.076123
    11  C    0.412062
    12  I   -0.705677
 Charge=              0.0000 electrons
 Dipole moment (field-independent basis, Debye):
    X=            -13.8485    Y=              1.8701    Z=              0.0000  Tot=             13.9742
 N-N= 1.267737104628D+02 E-N=-1.776923664128D+02  KE=-5.379969285467D+01
  Exact polarizability:   0.000   0.000   0.000   0.000   0.000   0.000
 Approx polarizability:  86.951 -10.181  22.984   0.000   0.000  19.085
 Leave Link  601 at Sat Dec 13 15:02:21 2025, MaxMem=   536870912 cpu:               0.0 elap:               0.1
 (Enter D:\G16W\l701.exe)
 ... and contract with generalized density number  0.
 Compute integral second derivatives.
 R6Disp: Adding PM7 dispersion energy 2nd derivatives to the Hessian.
 Leave Link  701 at Sat Dec 13 15:02:21 2025, MaxMem=   536870912 cpu:               0.0 elap:               0.2
 (Enter D:\G16W\l702.exe)
 L702 exits ... SP integral derivatives will be done elsewhere.
 Leave Link  702 at Sat Dec 13 15:02:21 2025, MaxMem=   536870912 cpu:               0.0 elap:               0.1
 (Enter D:\G16W\l703.exe)
 Integral derivatives from FoFJK, PRISM(SPDF).
 Compute integral second derivatives, UseDBF=F ICtDFT=           0.
 Calling FoFJK, ICntrl=    100147 FMM=F ISym2X=0 I1Cent= 0 IOpClX= 0 NMat=1 NMatS=1 NMatT=0.
 FoFJK:  IHMeth=43 ICntrl=  100147 DoSepK=F KAlg= 0 I1Cent=           0 FoldK=F
 IRaf=         0 NMat=       1 IRICut=       1 DoRegI=T DoRafI=F ISym2E= 0 IDoP0=3 IntGTp=3.
 FoFCou: FMM=F IPFlag=           0 FMFlag=      100000 FMFlg1=         800
         NFxFlg=           0 DoJE=F BraDBF=F KetDBF=F FulRan=T
         wScrn=  0.000000 ICntrl=    100147 IOpCl=  0 I1Cent=           0 NGrid=           0
         NMat0=    1 NMatS0=      1 NMatT0=    0 NMatD0=    1 NMtDS0=    0 NMtDT0=    0
 Symmetry not used in FoFCou.
 Leave Link  703 at Sat Dec 13 15:02:22 2025, MaxMem=   536870912 cpu:               1.0 elap:               0.1
 (Enter D:\G16W\l716.exe)
 Dipole        =-5.44840422D+00 7.35762315D-01 4.07950903D-07
 Polarizability= 0.00000000D+00 0.00000000D+00 0.00000000D+00
                 0.00000000D+00 0.00000000D+00 0.00000000D+00
 -------------------------------------------------------------------
 Center     Atomic                   Forces (Hartrees/Bohr)
 Number     Number              X              Y              Z
 -------------------------------------------------------------------
      1        6          -0.000000579    0.000000067    0.000000090
      2        6           0.000000405    0.000000160   -0.000000216
      3        7          -0.000000370    0.000000066    0.000000038
      4        1           0.000000127   -0.000000084    0.000000119
      5        1           0.000000070    0.000000071   -0.000000024
      6        1           0.000000045   -0.000000041   -0.000000114
      7        1           0.000000006   -0.000000027    0.000000013
      8        1          -0.000000036   -0.000000041    0.000000078
      9        1          -0.000000032   -0.000000038   -0.000000019
     10        1          -0.000000041   -0.000000042    0.000000020
     11        6           0.000000493    0.000000146    0.000000380
     12       53           0.000000254   -0.000000103    0.000000011
     13        1          -0.000000095   -0.000000189   -0.000000340
     14        1          -0.000000031    0.000000052   -0.000000053
     15        1          -0.000000217    0.000000002    0.000000016
 -------------------------------------------------------------------
 Cartesian Forces:  Max     0.000000579 RMS     0.000000183
 Z-matrix is all fixed cartesians, so copy forces.
 Leave Link  716 at Sat Dec 13 15:02:22 2025, MaxMem=   536870912 cpu:               0.0 elap:               0.1
 (Enter D:\G16W\l123.exe)
 IRC-IRC-IRC-IRC-IRC-IRC-IRC-IRC-IRC-IRC-IRC-IRC-IRC-IRC-IRC-IRC-IRC-IRC
          ******** Start new reaction path calculation ********
 Current Structure is TS -> form Hessian eigenvectors.
                            Diagonalizing Hessian.
 Supplied step size of   0.0500 bohr.
    Integration on MW PES will use step size of   0.1646 sqrt(amu)*bohr.
 Point Number:   0          Path Number:   1
 Calculating another point on the path.
 Point Number  1 in FORWARD path direction.
 Using LQA Reaction Path Following.
 IRC-IRC-IRC-IRC-IRC-IRC-IRC-IRC-IRC-IRC-IRC-IRC-IRC-IRC-IRC-IRC-IRC-IRC
 Leave Link  123 at Sat Dec 13 15:02:22 2025, MaxMem=   536870912 cpu:               0.0 elap:               0.1
 (Enter D:\G16W\l202.exe)
                          Input orientation:                          
 ---------------------------------------------------------------------
 Center     Atomic      Atomic             Coordinates (Angstroms)
 Number     Number       Type             X           Y           Z
 ---------------------------------------------------------------------
      1          6           0       -5.196297   -0.282295    0.000000
      2          6           0       -3.691621   -0.520483    0.000000
      3          7           0       -2.923584    0.766083    0.000000
      4          1           0       -5.536782    0.267492   -0.886130
      5          1           0       -5.743721   -1.237608    0.000000
      6          1           0       -5.536781    0.267491    0.886131
      7          1           0       -3.384794   -1.114205    0.892896
      8          1           0       -3.384794   -1.114204   -0.892897
      9          1           0       -3.143408    1.323674    0.826222
     10          1           0       -3.143408    1.323674   -0.826222
     11          6           0       -1.125566    0.430557    0.000000
     12         53           0        1.530729   -0.056843    0.000000
     13          1           0       -1.101647   -0.121930   -0.935552
     14          1           0       -1.101648   -0.121932    0.935552
     15          1           0       -0.814760    1.472648    0.000001
 ---------------------------------------------------------------------
                    Distance matrix (angstroms):
                    1          2          3          4          5
     1  C    0.000000
     2  C    1.523412   0.000000
     3  N    2.502863   1.498377   0.000000
     4  H    1.097006   2.193342   2.804037   0.000000
     5  H    1.101042   2.173794   3.459472   1.758799   0.000000
     6  H    1.097006   2.193341   2.804037   1.772260   1.758798
     7  H    2.184235   1.115308   2.132009   3.115297   2.525278
     8  H    2.184235   1.115309   2.132008   2.557378   2.525278
     9  H    2.734252   2.093823   1.020721   3.126645   3.742250
    10  H    2.734252   2.093823   1.020721   2.616745   3.742250
    11  C    4.132677   2.736625   1.829057   4.502294   4.910207
    12  I    6.730803   5.242890   4.529692   7.130227   7.369656
    13  H    4.203229   2.782457   2.232326   4.452473   4.865064
    14  H    4.203228   2.782456   2.232326   4.810467   4.865062
    15  H    4.719926   3.499843   2.224045   4.953295   5.624957
                    6          7          8          9         10
     6  H    0.000000
     7  H    2.557377   0.000000
     8  H    3.115296   1.785794   0.000000
     9  H    2.616744   2.450707   2.992806   0.000000
    10  H    3.126645   2.992806   2.450706   1.652443   0.000000
    11  C    4.502293   2.878831   2.878831   2.356265   2.356265
    12  I    7.130226   5.106627   5.106627   4.943280   4.943280
    13  H    4.810467   3.088785   2.489817   3.059805   2.504099
    14  H    4.452471   2.489815   3.088784   2.504099   3.059805
    15  H    4.953294   3.754217   3.754217   2.475366   2.475366
                   11         12         13         14         15
    11  C    0.000000
    12  I    2.700640   0.000000
    13  H    1.086772   2.794440   0.000000
    14  H    1.086773   2.794441   1.871105   0.000000
    15  H    1.087453   2.800117   1.870894   1.870895   0.000000
 Symmetry turned off by external request.
 Stoichiometry    C3H10IN
 Framework group  C1[X(C3H10IN)]
 Deg. of freedom    39
 Full point group                 C1      NOp   1
 Rotational constants (GHZ):          16.1451999           0.4735068           0.4653782
 Leave Link  202 at Sat Dec 13 15:02:22 2025, MaxMem=   536870912 cpu:               0.0 elap:               0.1
 (Enter D:\G16W\l301.exe)
 Standard basis: VSTO-6G (5D, 7F)
 Ernie: Thresh=  0.10000D-02 Tol=  0.10000D-05 Strict=F.
 EHB=         0.000000000 Number of Hydrogen Bonds=     0
  NNHCO=     0 NNPyr=     0 NCTC=     0               EPep=         0.000000000
    EC=        90.707829459  ECS=         2.177352396   EG=         0.405742697
   EHC=         0.000492638  EAt=       -31.688835444  AtH=         1.868030760
 EPDDG=         0.000000000  ECC=        93.291417191 EAtT=        33.556866204
  EHyb=         0.000000000
    35 basis functions,   216 primitive gaussians,    36 cartesian basis functions
    17 alpha electrons       17 beta electrons
       nuclear repulsion energy       126.8482833946 Hartrees.
 IExCor=    0 DFT=F Ex=HF Corr=None ExCW=0 ScaHFX=  1.000000
 ScaDFX=  1.000000  1.000000  1.000000  1.000000 ScalE2=  1.000000  1.000000
 IRadAn=      5 IRanWt=     -1 IRanGd=            0 ICorTp=0 IEmpDi=251
 Integral buffers will be    131072 words long.
 Regular integral format.
 Two-electron integral symmetry is turned off.
 R6Disp:  PM7 Dispersion energy=       -0.0019030796 Hartrees.
 Nuclear repulsion after empirical dispersion term =      126.8463803150 Hartrees.
 Leave Link  301 at Sat Dec 13 15:02:22 2025, MaxMem=   536870912 cpu:               0.0 elap:               0.1
 (Enter D:\G16W\l302.exe)
 Do NDO integrals.
 NPDir=0 NMtPBC=     1 NCelOv=     1 NCel=       1 NClECP=     1 NCelD=      1
         NCelK=      1 NCelE2=     1 NClLst=     1 CellRange=     0.0.
 One-electron integrals computed using PRISM.
 NBasis=    35 RedAO= F EigKep=  0.00D+00  NBF=    35
 NBsUse=    35 1.00D-04 EigRej=  0.00D+00 NBFU=    35
 Leave Link  302 at Sat Dec 13 15:02:22 2025, MaxMem=   536870912 cpu:               0.0 elap:               0.2
 (Enter D:\G16W\l303.exe)
 DipDrv:  MaxL=1.
 Leave Link  303 at Sat Dec 13 15:02:23 2025, MaxMem=   536870912 cpu:               1.0 elap:               0.1
 (Enter D:\G16W\l401.exe)
 Initial guess from the checkpoint file:  ".\Gau-21692.chk"
 B after Tr=    -0.693811    0.022799    0.000000
         Rot=    1.000000    0.000000    0.000000    0.000002 Ang=   0.00 deg.
 Guess basis will be translated and rotated to current coordinates.
 JPrj=0 DoOrth=T DoCkMO=T.
 Leave Link  401 at Sat Dec 13 15:02:23 2025, MaxMem=   536870912 cpu:               0.0 elap:               0.2
 (Enter D:\G16W\l502.exe)
 Keep J ints in memory in canonical form, NReq=1851606.
 FoFCou: FMM=F IPFlag=           0 FMFlag=           0 FMFlg1=           0
         NFxFlg=           0 DoJE=F BraDBF=F KetDBF=F FulRan=T
         wScrn=  0.000000 ICntrl=       600 IOpCl=  2 I1Cent=           0 NGrid=           0
         NMat0=    1 NMatS0=     95 NMatT0=    0 NMatD0=    1 NMtDS0=    0 NMtDT0=    0
 Symmetry not used in FoFCou.
 Two-electron integral symmetry not used.
 Closed shell SCF:
 Using DIIS extrapolation, IDIIS=  1040.
 Overlap will be assumed to be unity.
 NGot=   536870912 LenX=   536803851 LenY=   536802114
 Requested convergence on RMS density matrix=1.00D-08 within 128 cycles.
 Requested convergence on MAX density matrix=1.00D-06.
 Requested convergence on             energy=1.00D-06.
 No special actions if energy rises.

 Cycle   1  Pass 1  IDiag  1:
 E= 0.298683652158616E-01
 DIIS: error= 2.82D-03 at cycle   1 NSaved=   1.
 NSaved= 1 IEnMin= 1 EnMin= 0.298683652158616E-01 IErMin= 1 ErrMin= 2.82D-03
 ErrMax= 2.82D-03  0.00D+00 EMaxC= 1.00D-01 BMatC= 1.31D-04 BMatP= 1.31D-04
 IDIUse=3 WtCom= 9.72D-01 WtEn= 2.82D-02
 Coeff-Com:  0.100D+01
 Coeff-En:   0.100D+01
 Coeff:      0.100D+01
 GapD=    2.000 DampG=2.000 DampE=1.000 DampFc=2.0000 IDamp=-1.
 RMSDP=7.96D-04 MaxDP=9.22D-03              OVMax= 0.00D+00

 Cycle   2  Pass 1  IDiag  3:
 E= 0.293333431259697E-01 Delta-E=       -0.000535022090 Rises=F Damp=F
 DIIS: error= 1.09D-03 at cycle   2 NSaved=   2.
 NSaved= 2 IEnMin= 2 EnMin= 0.293333431259697E-01 IErMin= 2 ErrMin= 1.09D-03
 ErrMax= 1.09D-03  0.00D+00 EMaxC= 1.00D-01 BMatC= 1.95D-05 BMatP= 1.31D-04
 IDIUse=3 WtCom= 9.89D-01 WtEn= 1.09D-02
 Coeff-Com: -0.443D+00 0.144D+01
 Coeff-En:   0.000D+00 0.100D+01
 Coeff:     -0.439D+00 0.144D+01
 Gap=     0.263 Goal=   None    Shift=    0.000
 RMSDP=5.06D-04 MaxDP=6.37D-03 DE=-5.35D-04 OVMax= 8.34D-03

 Cycle   3  Pass 1  IDiag  3:
 E= 0.292157112297531E-01 Delta-E=       -0.000117631896 Rises=F Damp=F
 DIIS: error= 1.63D-04 at cycle   3 NSaved=   3.
 NSaved= 3 IEnMin= 3 EnMin= 0.292157112297531E-01 IErMin= 3 ErrMin= 1.63D-04
 ErrMax= 1.63D-04  0.00D+00 EMaxC= 1.00D-01 BMatC= 1.09D-06 BMatP= 1.95D-05
 IDIUse=3 WtCom= 9.98D-01 WtEn= 1.63D-03
 Coeff-Com:  0.557D-01-0.328D+00 0.127D+01
 Coeff-En:   0.000D+00 0.000D+00 0.100D+01
 Coeff:      0.556D-01-0.328D+00 0.127D+01
 Gap=     0.262 Goal=   None    Shift=    0.000
 RMSDP=1.40D-04 MaxDP=1.87D-03 DE=-1.18D-04 OVMax= 2.44D-03

 Cycle   4  Pass 1  IDiag  3:
 E= 0.292075608000459E-01 Delta-E=       -0.000008150430 Rises=F Damp=F
 DIIS: error= 5.64D-05 at cycle   4 NSaved=   4.
 NSaved= 4 IEnMin= 4 EnMin= 0.292075608000459E-01 IErMin= 4 ErrMin= 5.64D-05
 ErrMax= 5.64D-05  0.00D+00 EMaxC= 1.00D-01 BMatC= 9.32D-08 BMatP= 1.09D-06
 IDIUse=1 WtCom= 1.00D+00 WtEn= 0.00D+00
 Coeff-Com:  0.180D-01-0.345D-01-0.292D+00 0.131D+01
 Coeff:      0.180D-01-0.345D-01-0.292D+00 0.131D+01
 Gap=     0.262 Goal=   None    Shift=    0.000
 RMSDP=4.68D-05 MaxDP=6.42D-04 DE=-8.15D-06 OVMax= 8.78D-04

 Cycle   5  Pass 1  IDiag  3:
 E= 0.292068507385608E-01 Delta-E=       -0.000000710061 Rises=F Damp=F
 DIIS: error= 1.31D-05 at cycle   5 NSaved=   5.
 NSaved= 5 IEnMin= 5 EnMin= 0.292068507385608E-01 IErMin= 5 ErrMin= 1.31D-05
 ErrMax= 1.31D-05  0.00D+00 EMaxC= 1.00D-01 BMatC= 5.36D-09 BMatP= 9.32D-08
 IDIUse=1 WtCom= 1.00D+00 WtEn= 0.00D+00
 Coeff-Com: -0.103D-01 0.370D-01 0.132D-01-0.449D+00 0.141D+01
 Coeff:     -0.103D-01 0.370D-01 0.132D-01-0.449D+00 0.141D+01
 Gap=     0.262 Goal=   None    Shift=    0.000
 RMSDP=9.97D-06 MaxDP=1.18D-04 DE=-7.10D-07 OVMax= 1.87D-04

 Cycle   6  Pass 1  IDiag  3:
 E= 0.292068169294311E-01 Delta-E=       -0.000000033809 Rises=F Damp=F
 DIIS: error= 1.93D-06 at cycle   6 NSaved=   6.
 NSaved= 6 IEnMin= 6 EnMin= 0.292068169294311E-01 IErMin= 6 ErrMin= 1.93D-06
 ErrMax= 1.93D-06  0.00D+00 EMaxC= 1.00D-01 BMatC= 2.02D-10 BMatP= 5.36D-09
 IDIUse=1 WtCom= 1.00D+00 WtEn= 0.00D+00
 Coeff-Com:  0.382D-02-0.147D-01 0.542D-02 0.143D+00-0.590D+00 0.145D+01
 Coeff:      0.382D-02-0.147D-01 0.542D-02 0.143D+00-0.590D+00 0.145D+01
 Gap=     0.262 Goal=   None    Shift=    0.000
 RMSDP=1.57D-06 MaxDP=1.26D-05 DE=-3.38D-08 OVMax= 1.92D-05

 Cycle   7  Pass 1  IDiag  3:
 E= 0.292068158101557E-01 Delta-E=       -0.000000001119 Rises=F Damp=F
 DIIS: error= 4.79D-07 at cycle   7 NSaved=   7.
 NSaved= 7 IEnMin= 7 EnMin= 0.292068158101557E-01 IErMin= 7 ErrMin= 4.79D-07
 ErrMax= 4.79D-07  0.00D+00 EMaxC= 1.00D-01 BMatC= 7.66D-12 BMatP= 2.02D-10
 IDIUse=1 WtCom= 1.00D+00 WtEn= 0.00D+00
 Coeff-Com: -0.575D-03 0.235D-02-0.172D-02-0.192D-01 0.992D-01-0.395D+00
 Coeff-Com:  0.131D+01
 Coeff:     -0.575D-03 0.235D-02-0.172D-02-0.192D-01 0.992D-01-0.395D+00
 Coeff:      0.131D+01
 Gap=     0.262 Goal=   None    Shift=    0.000
 RMSDP=2.72D-07 MaxDP=2.90D-06 DE=-1.12D-09 OVMax= 2.36D-06

 Cycle   8  Pass 1  IDiag  3:
 E= 0.292068157686032E-01 Delta-E=       -0.000000000042 Rises=F Damp=F
 DIIS: error= 1.61D-07 at cycle   8 NSaved=   8.
 NSaved= 8 IEnMin= 8 EnMin= 0.292068157686032E-01 IErMin= 8 ErrMin= 1.61D-07
 ErrMax= 1.61D-07  0.00D+00 EMaxC= 1.00D-01 BMatC= 6.29D-13 BMatP= 7.66D-12
 IDIUse=1 WtCom= 1.00D+00 WtEn= 0.00D+00
 Coeff-Com:  0.151D-03-0.655D-03 0.597D-03 0.496D-02-0.305D-01 0.149D+00
 Coeff-Com: -0.677D+00 0.155D+01
 Coeff:      0.151D-03-0.655D-03 0.597D-03 0.496D-02-0.305D-01 0.149D+00
 Coeff:     -0.677D+00 0.155D+01
 Gap=     0.262 Goal=   None    Shift=    0.000
 RMSDP=8.41D-08 MaxDP=9.81D-07 DE=-4.16D-11 OVMax= 8.35D-07

 Cycle   9  Pass 1  IDiag  3:
 E= 0.292068157644678E-01 Delta-E=       -0.000000000004 Rises=F Damp=F
 DIIS: error= 4.54D-08 at cycle   9 NSaved=   9.
 NSaved= 9 IEnMin= 9 EnMin= 0.292068157644678E-01 IErMin= 9 ErrMin= 4.54D-08
 ErrMax= 4.54D-08  0.00D+00 EMaxC= 1.00D-01 BMatC= 5.68D-14 BMatP= 6.29D-13
 IDIUse=1 WtCom= 1.00D+00 WtEn= 0.00D+00
 Coeff-Com:  0.282D-05 0.152D-05 0.102D-04-0.119D-03 0.224D-02-0.225D-01
 Coeff-Com:  0.160D+00-0.675D+00 0.154D+01
 Coeff:      0.282D-05 0.152D-05 0.102D-04-0.119D-03 0.224D-02-0.225D-01
 Coeff:      0.160D+00-0.675D+00 0.154D+01
 Gap=     0.262 Goal=   None    Shift=    0.000
 RMSDP=3.01D-08 MaxDP=3.07D-07 DE=-4.14D-12 OVMax= 2.81D-07

 Cycle  10  Pass 1  IDiag  3:
 E= 0.292068157647520E-01 Delta-E=        0.000000000000 Rises=F Damp=F
 DIIS: error= 8.73D-09 at cycle  10 NSaved=  10.
 NSaved=10 IEnMin= 9 EnMin= 0.292068157644678E-01 IErMin=10 ErrMin= 8.73D-09
 ErrMax= 8.73D-09  0.00D+00 EMaxC= 1.00D-01 BMatC= 2.08D-15 BMatP= 5.68D-14
 IDIUse=1 WtCom= 1.00D+00 WtEn= 0.00D+00
 Coeff-Com: -0.547D-05 0.222D-04-0.206D-04-0.156D-03 0.721D-03-0.142D-02
 Coeff-Com: -0.435D-02 0.812D-01-0.368D+00 0.129D+01
 Coeff:     -0.547D-05 0.222D-04-0.206D-04-0.156D-03 0.721D-03-0.142D-02
 Coeff:     -0.435D-02 0.812D-01-0.368D+00 0.129D+01
 Gap=     0.262 Goal=   None    Shift=    0.000
 RMSDP=4.80D-09 MaxDP=4.60D-08 DE= 2.84D-13 OVMax= 4.17D-08

 Cycle  11  Pass 2  IDiag  1:
 SCF Done:  E(RPM7) =  0.292068157648E-01 A.U. after   11 cycles
            NFock= 10  Conv=0.48D-08     -V/T= 1.0005
 KE=-5.381995429194D+01 PE=-1.777373884228D+02 EE= 1.047401692155D+02
 Leave Link  502 at Sat Dec 13 15:02:23 2025, MaxMem=   536870912 cpu:               0.0 elap:               0.6
 (Enter D:\G16W\l801.exe)
 Range of M.O.s used for correlation:     1    35
 NBasis=    35 NAE=    17 NBE=    17 NFC=     0 NFV=     0
 NROrb=     35 NOA=    17 NOB=    17 NVA=    18 NVB=    18
 Leave Link  801 at Sat Dec 13 15:02:24 2025, MaxMem=   536870912 cpu:               1.0 elap:               0.1
 (Enter D:\G16W\l1101.exe)
 Leave Link 1101 at Sat Dec 13 15:02:24 2025, MaxMem=   536870912 cpu:               0.0 elap:               0.1
 (Enter D:\G16W\l1102.exe)
 Symmetrizing basis deriv contribution to polar:
 IMax=3 JMax=2 DiffMx= 0.00D+00
 Leave Link 1102 at Sat Dec 13 15:02:24 2025, MaxMem=   536870912 cpu:               0.0 elap:               0.1
 (Enter D:\G16W\l1110.exe)
 Leave Link 1110 at Sat Dec 13 15:02:24 2025, MaxMem=   536870912 cpu:               0.0 elap:               0.1
 (Enter D:\G16W\l1002.exe)
 Minotr:  Closed shell wavefunction.
 Leave Link 1002 at Sat Dec 13 15:02:24 2025, MaxMem=   536870912 cpu:               0.0 elap:               0.1
 (Enter D:\G16W\l701.exe)
 ... and contract with generalized density number  0.
 Compute integral first derivatives.
 R6Disp: Adding PM7 dispersion energy 1st derivatives to the gradient.
 Leave Link  701 at Sat Dec 13 15:02:24 2025, MaxMem=   536870912 cpu:               0.0 elap:               0.2
 (Enter D:\G16W\l702.exe)
 L702 exits ... SP integral derivatives will be done elsewhere.
 Leave Link  702 at Sat Dec 13 15:02:24 2025, MaxMem=   536870912 cpu:               0.0 elap:               0.1
 (Enter D:\G16W\l703.exe)
 Integral derivatives from FoFJK, PRISM(SPDF).
 Compute integral first derivatives, UseDBF=F ICtDFT=           0.
 Calling FoFJK, ICntrl=      2147 FMM=F ISym2X=0 I1Cent= 0 IOpClX= 0 NMat=1 NMatS=1 NMatT=0.
 FoFJK:  IHMeth=43 ICntrl=    2147 DoSepK=F KAlg= 0 I1Cent=           0 FoldK=F
 IRaf=         0 NMat=       1 IRICut=       1 DoRegI=T DoRafI=F ISym2E= 0 IDoP0=3 IntGTp=3.
 FoFCou: FMM=F IPFlag=           0 FMFlag=      100000 FMFlg1=         800
         NFxFlg=           0 DoJE=F BraDBF=F KetDBF=F FulRan=T
         wScrn=  0.000000 ICntrl=      2147 IOpCl=  0 I1Cent=           0 NGrid=           0
         NMat0=    1 NMatS0=      1 NMatT0=    0 NMatD0=    1 NMtDS0=    0 NMtDT0=    0
 Symmetry not used in FoFCou.
 Leave Link  703 at Sat Dec 13 15:02:25 2025, MaxMem=   536870912 cpu:               0.0 elap:               0.1
 (Enter D:\G16W\l716.exe)
 Dipole        =-5.71215034D+00 7.69597607D-01 4.12323269D-07
 Polarizability= 0.00000000D+00 0.00000000D+00 0.00000000D+00
                 0.00000000D+00 0.00000000D+00 0.00000000D+00
 -------------------------------------------------------------------
 Center     Atomic                   Forces (Hartrees/Bohr)
 Number     Number              X              Y              Z
 -------------------------------------------------------------------
      1        6           0.000552411    0.000343353    0.000000090
      2        6           0.000381604   -0.000242817   -0.000000216
      3        7           0.002339455   -0.000520597    0.000000036
      4        1           0.000026850    0.000014141   -0.000003490
      5        1           0.000033901    0.000023161   -0.000000024
      6        1           0.000026767    0.000014184    0.000003496
      7        1           0.000008308   -0.000041944    0.000004799
      8        1           0.000008266   -0.000041959   -0.000004709
      9        1           0.000118713   -0.000006773    0.000031294
     10        1           0.000118703   -0.000006776   -0.000031293
     11        6          -0.006603971    0.001040228    0.000000380
     12       53           0.002965194   -0.000544841    0.000000012
     13        1           0.000021666    0.000052644    0.000114702
     14        1           0.000021728    0.000052885   -0.000115092
     15        1          -0.000019595   -0.000134890    0.000000016
 -------------------------------------------------------------------
 Cartesian Forces:  Max     0.006603971 RMS     0.001157050
 Z-matrix is all fixed cartesians, so copy forces.
 Leave Link  716 at Sat Dec 13 15:02:25 2025, MaxMem=   536870912 cpu:               0.0 elap:               0.1
 (Enter D:\G16W\l123.exe)
 IRC-IRC-IRC-IRC-IRC-IRC-IRC-IRC-IRC-IRC-IRC-IRC-IRC-IRC-IRC-IRC-IRC-IRC
 Pt  1 Step number   1 out of a maximum of  20
 Using modified Bulirsch-Stoer corrector integration.
   Using distance weighted interpolants to fit PES.
 PreDWI: IReCr0= 2 IReCr1= 1 IReCr2= 1 IReCr3= 1
 Modified Bulirsch-Stoer Extrapolation Cycles:
    EPS =    0.000010000000000
    Cycle     1 NS=    48
      PEZero:  N= 2 I= 1 D=  4.29D-04 Err=  1.19D-03
    Cycle     2 NS=    64 Truncation Error =  0.001185427
      PEZero:  N= 3 I= 2 D=  4.29D-04 Err=  7.90D-04
      PEZero:  N= 3 I= 1 D=  8.57D-04 Err=  4.66D-08
    Cycle     3 NS=    96 Truncation Error =  0.000000047
 BS completed in    3 cycles and     208 integration steps.
 Maximum DWI energy   std dev =  0.000000353 at pt     1
 Maximum DWI gradient std dev =  0.048052981 at pt     1
 SUMMARY OF CORRECTOR INTEGRATION:
   Predictor End Point Energy =     0.029207
   Old End Point Energy       =     0.029207
   Corrected End Point Energy =     0.029207
   Predictor End-Start Dist.  =     0.164621
   Old End-Start Dist.        =     0.164621
   New End-Start Dist.        =     0.164617
   New End-Old End Dist.      =     0.000875
 CORRECTOR INTEGRATION CONVERGENCE:
   Recorrection delta-x convergence threshold:    0.010000
   Delta-x Convergence Met
 Point Number:   1          Path Number:   1
                    CURRENT STRUCTURE
                Cartesian Coordinates (Ang):                
 ---------------------------------------------------------------------
 Center     Atomic                     Coordinates (Angstroms)
 Number     Number                        X           Y           Z
 ---------------------------------------------------------------------
      1          6                   -5.196292   -0.282286    0.000000
      2          6                   -3.691629   -0.520495    0.000000
      3          7                   -2.923544    0.766092    0.000000
      4          1                   -5.536773    0.267498   -0.886133
      5          1                   -5.743719   -1.237600    0.000000
      6          1                   -5.536772    0.267497    0.886134
      7          1                   -3.384794   -1.114219    0.892894
      8          1                   -3.384795   -1.114218   -0.892895
      9          1                   -3.143546    1.323686    0.826230
     10          1                   -3.143546    1.323686   -0.826230
     11          6                   -1.125560    0.430532    0.000000
     12         53                    1.530729   -0.056841    0.000000
     13          1                   -1.101736   -0.121835   -0.935388
     14          1                   -1.101737   -0.121836    0.935387
     15          1                   -0.814882    1.472460    0.000001
 ---------------------------------------------------------------------
   CHANGE IN THE REACTION COORDINATE =    0.16462
   NET REACTION COORDINATE UP TO THIS POINT =    0.16462
  # OF POINTS ALONG THE PATH =   1
  # OF STEPS =   1

 Calculating another point on the path.
 Point Number  2 in FORWARD path direction.
 Using LQA Reaction Path Following.
   LQA: T_Est iteration completed in    3 iterations.
 IRC-IRC-IRC-IRC-IRC-IRC-IRC-IRC-IRC-IRC-IRC-IRC-IRC-IRC-IRC-IRC-IRC-IRC
 Leave Link  123 at Sat Dec 13 15:02:25 2025, MaxMem=   536870912 cpu:               0.0 elap:               0.2
 (Enter D:\G16W\l202.exe)
                          Input orientation:                          
 ---------------------------------------------------------------------
 Center     Atomic      Atomic             Coordinates (Angstroms)
 Number     Number       Type             X           Y           Z
 ---------------------------------------------------------------------
      1          6           0       -5.194365   -0.281090    0.000000
      2          6           0       -3.690223   -0.521314    0.000000
      3          7           0       -2.916793    0.764547    0.000000
      4          1           0       -5.535678    0.268105   -0.886271
      5          1           0       -5.742334   -1.236593    0.000000
      6          1           0       -5.535678    0.268104    0.886272
      7          1           0       -3.384489   -1.115896    0.893047
      8          1           0       -3.384490   -1.115896   -0.893047
      9          1           0       -3.137735    1.323017    0.826948
     10          1           0       -3.137735    1.323017   -0.826948
     11          6           0       -1.148724    0.434225    0.000000
     12         53           0        1.531706   -0.057021    0.000000
     13          1           0       -1.100402   -0.121979   -0.934437
     14          1           0       -1.100402   -0.121980    0.934436
     15          1           0       -0.814143    1.470878    0.000001
 ---------------------------------------------------------------------
                    Distance matrix (angstroms):
                    1          2          3          4          5
     1  C    0.000000
     2  C    1.523204   0.000000
     3  N    2.506130   1.500544   0.000000
     4  H    1.097081   2.194166   2.809002   0.000000
     5  H    1.101479   2.173196   3.462404   1.758493   0.000000
     6  H    1.097081   2.194166   2.809002   1.772543   1.758493
     7  H    2.184052   1.115587   2.133621   3.115934   2.524189
     8  H    2.184052   1.115587   2.133621   2.557952   2.524189
     9  H    2.736188   2.095386   1.022031   3.130190   3.744246
    10  H    2.736188   2.095386   1.022031   2.620399   3.744246
    11  C    4.108392   2.715193   1.798661   4.478665   4.888035
    12  I    6.729802   5.242529   4.523729   7.130155   7.369060
    13  H    4.202264   2.782052   2.226742   4.452658   4.864470
    14  H    4.202263   2.782052   2.226742   4.810282   4.864469
    15  H    4.717598   3.498666   2.218117   4.952276   5.622941
                    6          7          8          9         10
     6  H    0.000000
     7  H    2.557951   0.000000
     8  H    3.115934   1.786094   0.000000
     9  H    2.620399   2.452255   2.994590   0.000000
    10  H    3.130191   2.994590   2.452255   1.653895   0.000000
    11  C    4.478665   2.863400   2.863400   2.330227   2.330227
    12  I    7.130155   5.107615   5.107615   4.938829   4.938829
    13  H    4.810283   3.089438   2.491314   3.056340   2.500059
    14  H    4.452658   2.491312   3.089437   2.500059   3.056340
    15  H    4.952276   3.754413   3.754413   2.470786   2.470787
                   11         12         13         14         15
    11  C    0.000000
    12  I    2.725074   0.000000
    13  H    1.088517   2.793812   0.000000
    14  H    1.088517   2.793812   1.868873   0.000000
    15  H    1.089308   2.799551   1.868772   1.868772   0.000000
 Symmetry turned off by external request.
 Stoichiometry    C3H10IN
 Framework group  C1[X(C3H10IN)]
 Deg. of freedom    39
 Full point group                 C1      NOp   1
 Rotational constants (GHZ):          16.1425562           0.4735205           0.4653887
 Leave Link  202 at Sat Dec 13 15:02:25 2025, MaxMem=   536870912 cpu:               0.0 elap:               0.1
 (Enter D:\G16W\l301.exe)
 Standard basis: VSTO-6G (5D, 7F)
 Ernie: Thresh=  0.10000D-02 Tol=  0.10000D-05 Strict=F.
 EHB=         0.000000000 Number of Hydrogen Bonds=     0
  NNHCO=     0 NNPyr=     0 NCTC=     0               EPep=         0.000000000
    EC=        90.782652849  ECS=         2.176343171   EG=         0.407506993
   EHC=         0.000486927  EAt=       -31.688835444  AtH=         1.868030760
 EPDDG=         0.000000000  ECC=        93.366989940 EAtT=        33.556866204
  EHyb=         0.000000000
    35 basis functions,   216 primitive gaussians,    36 cartesian basis functions
    17 alpha electrons       17 beta electrons
       nuclear repulsion energy       126.9238561443 Hartrees.
 IExCor=    0 DFT=F Ex=HF Corr=None ExCW=0 ScaHFX=  1.000000
 ScaDFX=  1.000000  1.000000  1.000000  1.000000 ScalE2=  1.000000  1.000000
 IRadAn=      5 IRanWt=     -1 IRanGd=            0 ICorTp=0 IEmpDi=251
 Integral buffers will be    131072 words long.
 Regular integral format.
 Two-electron integral symmetry is turned off.
 R6Disp:  PM7 Dispersion energy=       -0.0019044544 Hartrees.
 Nuclear repulsion after empirical dispersion term =      126.9219516899 Hartrees.
 Leave Link  301 at Sat Dec 13 15:02:25 2025, MaxMem=   536870912 cpu:               0.0 elap:               0.1
 (Enter D:\G16W\l302.exe)
 Do NDO integrals.
 NPDir=0 NMtPBC=     1 NCelOv=     1 NCel=       1 NClECP=     1 NCelD=      1
         NCelK=      1 NCelE2=     1 NClLst=     1 CellRange=     0.0.
 One-electron integrals computed using PRISM.
 NBasis=    35 RedAO= F EigKep=  0.00D+00  NBF=    35
 NBsUse=    35 1.00D-04 EigRej=  0.00D+00 NBFU=    35
 Leave Link  302 at Sat Dec 13 15:02:26 2025, MaxMem=   536870912 cpu:               1.0 elap:               0.2
 (Enter D:\G16W\l303.exe)
 DipDrv:  MaxL=1.
 Leave Link  303 at Sat Dec 13 15:02:26 2025, MaxMem=   536870912 cpu:               0.0 elap:               0.1
 (Enter D:\G16W\l401.exe)
 Initial guess from the checkpoint file:  ".\Gau-21692.chk"
 B after Tr=    -0.000021   -0.000009    0.000000
         Rot=    1.000000    0.000000    0.000000    0.000002 Ang=   0.00 deg.
 Guess basis will be translated and rotated to current coordinates.
 JPrj=0 DoOrth=T DoCkMO=T.
 Leave Link  401 at Sat Dec 13 15:02:26 2025, MaxMem=   536870912 cpu:               0.0 elap:               0.2
 (Enter D:\G16W\l502.exe)
 Keep J ints in memory in canonical form, NReq=1851606.
 FoFCou: FMM=F IPFlag=           0 FMFlag=           0 FMFlg1=           0
         NFxFlg=           0 DoJE=F BraDBF=F KetDBF=F FulRan=T
         wScrn=  0.000000 ICntrl=       600 IOpCl=  2 I1Cent=           0 NGrid=           0
         NMat0=    1 NMatS0=     95 NMatT0=    0 NMatD0=    1 NMtDS0=    0 NMtDT0=    0
 Symmetry not used in FoFCou.
 Two-electron integral symmetry not used.
 Closed shell SCF:
 Using DIIS extrapolation, IDIIS=  1040.
 Overlap will be assumed to be unity.
 NGot=   536870912 LenX=   536803851 LenY=   536802114
 Requested convergence on RMS density matrix=1.00D-08 within 128 cycles.
 Requested convergence on MAX density matrix=1.00D-06.
 Requested convergence on             energy=1.00D-06.
 No special actions if energy rises.

 Cycle   1  Pass 1  IDiag  1:
 E= 0.293614031655096E-01
 DIIS: error= 2.82D-03 at cycle   1 NSaved=   1.
 NSaved= 1 IEnMin= 1 EnMin= 0.293614031655096E-01 IErMin= 1 ErrMin= 2.82D-03
 ErrMax= 2.82D-03  0.00D+00 EMaxC= 1.00D-01 BMatC= 1.33D-04 BMatP= 1.33D-04
 IDIUse=3 WtCom= 9.72D-01 WtEn= 2.82D-02
 Coeff-Com:  0.100D+01
 Coeff-En:   0.100D+01
 Coeff:      0.100D+01
 GapD=    2.000 DampG=2.000 DampE=1.000 DampFc=2.0000 IDamp=-1.
 RMSDP=7.89D-04 MaxDP=9.51D-03              OVMax= 0.00D+00

 Cycle   2  Pass 1  IDiag  3:
 E= 0.288279563723250E-01 Delta-E=       -0.000533446793 Rises=F Damp=F
 DIIS: error= 1.09D-03 at cycle   2 NSaved=   2.
 NSaved= 2 IEnMin= 2 EnMin= 0.288279563723250E-01 IErMin= 2 ErrMin= 1.09D-03
 ErrMax= 1.09D-03  0.00D+00 EMaxC= 1.00D-01 BMatC= 1.95D-05 BMatP= 1.33D-04
 IDIUse=3 WtCom= 9.89D-01 WtEn= 1.09D-02
 Coeff-Com: -0.435D+00 0.143D+01
 Coeff-En:   0.000D+00 0.100D+01
 Coeff:     -0.430D+00 0.143D+01
 Gap=     0.259 Goal=   None    Shift=    0.000
 RMSDP=5.00D-04 MaxDP=6.55D-03 DE=-5.33D-04 OVMax= 8.04D-03

 Cycle   3  Pass 1  IDiag  3:
 E= 0.287115950644647E-01 Delta-E=       -0.000116361308 Rises=F Damp=F
 DIIS: error= 1.68D-04 at cycle   3 NSaved=   3.
 NSaved= 3 IEnMin= 3 EnMin= 0.287115950644647E-01 IErMin= 3 ErrMin= 1.68D-04
 ErrMax= 1.68D-04  0.00D+00 EMaxC= 1.00D-01 BMatC= 1.14D-06 BMatP= 1.95D-05
 IDIUse=3 WtCom= 9.98D-01 WtEn= 1.68D-03
 Coeff-Com:  0.632D-01-0.358D+00 0.129D+01
 Coeff-En:   0.000D+00 0.000D+00 0.100D+01
 Coeff:      0.631D-01-0.358D+00 0.129D+01
 Gap=     0.258 Goal=   None    Shift=    0.000
 RMSDP=1.45D-04 MaxDP=2.02D-03 DE=-1.16D-04 OVMax= 2.49D-03

 Cycle   4  Pass 1  IDiag  3:
 E= 0.287029816531970E-01 Delta-E=       -0.000008613411 Rises=F Damp=F
 DIIS: error= 5.74D-05 at cycle   4 NSaved=   4.
 NSaved= 4 IEnMin= 4 EnMin= 0.287029816531970E-01 IErMin= 4 ErrMin= 5.74D-05
 ErrMax= 5.74D-05  0.00D+00 EMaxC= 1.00D-01 BMatC= 9.94D-08 BMatP= 1.14D-06
 IDIUse=1 WtCom= 1.00D+00 WtEn= 0.00D+00
 Coeff-Com:  0.168D-01-0.298D-01-0.301D+00 0.131D+01
 Coeff:      0.168D-01-0.298D-01-0.301D+00 0.131D+01
 Gap=     0.258 Goal=   None    Shift=    0.000
 RMSDP=4.84D-05 MaxDP=6.83D-04 DE=-8.61D-06 OVMax= 8.97D-04

 Cycle   5  Pass 1  IDiag  3:
 E= 0.287022262958345E-01 Delta-E=       -0.000000755357 Rises=F Damp=F
 DIIS: error= 1.54D-05 at cycle   5 NSaved=   5.
 NSaved= 5 IEnMin= 5 EnMin= 0.287022262958345E-01 IErMin= 5 ErrMin= 1.54D-05
 ErrMax= 1.54D-05  0.00D+00 EMaxC= 1.00D-01 BMatC= 5.96D-09 BMatP= 9.94D-08
 IDIUse=1 WtCom= 1.00D+00 WtEn= 0.00D+00
 Coeff-Com: -0.103D-01 0.381D-01 0.111D-01-0.454D+00 0.141D+01
 Coeff:     -0.103D-01 0.381D-01 0.111D-01-0.454D+00 0.141D+01
 Gap=     0.258 Goal=   None    Shift=    0.000
 RMSDP=1.05D-05 MaxDP=1.23D-04 DE=-7.55D-07 OVMax= 1.96D-04

 Cycle   6  Pass 1  IDiag  3:
 E= 0.287021886897776E-01 Delta-E=       -0.000000037606 Rises=F Damp=F
 DIIS: error= 2.03D-06 at cycle   6 NSaved=   6.
 NSaved= 6 IEnMin= 6 EnMin= 0.287021886897776E-01 IErMin= 6 ErrMin= 2.03D-06
 ErrMax= 2.03D-06  0.00D+00 EMaxC= 1.00D-01 BMatC= 2.12D-10 BMatP= 5.96D-09
 IDIUse=1 WtCom= 1.00D+00 WtEn= 0.00D+00
 Coeff-Com:  0.374D-02-0.150D-01 0.694D-02 0.138D+00-0.577D+00 0.144D+01
 Coeff:      0.374D-02-0.150D-01 0.694D-02 0.138D+00-0.577D+00 0.144D+01
 Gap=     0.258 Goal=   None    Shift=    0.000
 RMSDP=1.61D-06 MaxDP=1.21D-05 DE=-3.76D-08 OVMax= 1.93D-05

 Cycle   7  Pass 1  IDiag  3:
 E= 0.287021875197269E-01 Delta-E=       -0.000000001170 Rises=F Damp=F
 DIIS: error= 4.26D-07 at cycle   7 NSaved=   7.
 NSaved= 7 IEnMin= 7 EnMin= 0.287021875197269E-01 IErMin= 7 ErrMin= 4.26D-07
 ErrMax= 4.26D-07  0.00D+00 EMaxC= 1.00D-01 BMatC= 7.36D-12 BMatP= 2.12D-10
 IDIUse=1 WtCom= 1.00D+00 WtEn= 0.00D+00
 Coeff-Com: -0.535D-03 0.227D-02-0.185D-02-0.176D-01 0.928D-01-0.377D+00
 Coeff-Com:  0.130D+01
 Coeff:     -0.535D-03 0.227D-02-0.185D-02-0.176D-01 0.928D-01-0.377D+00
 Coeff:      0.130D+01
 Gap=     0.258 Goal=   None    Shift=    0.000
 RMSDP=2.72D-07 MaxDP=2.57D-06 DE=-1.17D-09 OVMax= 2.47D-06

 Cycle   8  Pass 1  IDiag  3:
 E= 0.287021874794249E-01 Delta-E=       -0.000000000040 Rises=F Damp=F
 DIIS: error= 1.48D-07 at cycle   8 NSaved=   8.
 NSaved= 8 IEnMin= 8 EnMin= 0.287021874794249E-01 IErMin= 8 ErrMin= 1.48D-07
 ErrMax= 1.48D-07  0.00D+00 EMaxC= 1.00D-01 BMatC= 5.98D-13 BMatP= 7.36D-12
 IDIUse=1 WtCom= 1.00D+00 WtEn= 0.00D+00
 Coeff-Com:  0.166D-03-0.747D-03 0.718D-03 0.536D-02-0.329D-01 0.158D+00
 Coeff-Com: -0.710D+00 0.158D+01
 Coeff:      0.166D-03-0.747D-03 0.718D-03 0.536D-02-0.329D-01 0.158D+00
 Coeff:     -0.710D+00 0.158D+01
 Gap=     0.258 Goal=   None    Shift=    0.000
 RMSDP=8.49D-08 MaxDP=9.04D-07 DE=-4.03D-11 OVMax= 7.36D-07

 Cycle   9  Pass 1  IDiag  3:
 E= 0.287021874754601E-01 Delta-E=       -0.000000000004 Rises=F Damp=F
 DIIS: error= 4.16D-08 at cycle   9 NSaved=   9.
 NSaved= 9 IEnMin= 9 EnMin= 0.287021874754601E-01 IErMin= 9 ErrMin= 4.16D-08
 ErrMax= 4.16D-08  0.00D+00 EMaxC= 1.00D-01 BMatC= 5.15D-14 BMatP= 5.98D-13
 IDIUse=1 WtCom= 1.00D+00 WtEn= 0.00D+00
 Coeff-Com: -0.151D-04 0.794D-04-0.587D-04-0.696D-03 0.521D-02-0.334D-01
 Coeff-Com:  0.195D+00-0.709D+00 0.154D+01
 Coeff:     -0.151D-04 0.794D-04-0.587D-04-0.696D-03 0.521D-02-0.334D-01
 Coeff:      0.195D+00-0.709D+00 0.154D+01
 Gap=     0.258 Goal=   None    Shift=    0.000
 RMSDP=2.93D-08 MaxDP=2.85D-07 DE=-3.96D-12 OVMax= 2.57D-07

 Cycle  10  Pass 1  IDiag  3:
 E= 0.287021874753606E-01 Delta-E=        0.000000000000 Rises=F Damp=F
 DIIS: error= 8.21D-09 at cycle  10 NSaved=  10.
 NSaved=10 IEnMin=10 EnMin= 0.287021874753606E-01 IErMin=10 ErrMin= 8.21D-09
 ErrMax= 8.21D-09  0.00D+00 EMaxC= 1.00D-01 BMatC= 1.89D-15 BMatP= 5.15D-14
 IDIUse=1 WtCom= 1.00D+00 WtEn= 0.00D+00
 Coeff-Com: -0.379D-05 0.151D-04-0.144D-04-0.983D-04 0.371D-03 0.201D-03
 Coeff-Com: -0.109D-01 0.905D-01-0.377D+00 0.130D+01
 Coeff:     -0.379D-05 0.151D-04-0.144D-04-0.983D-04 0.371D-03 0.201D-03
 Coeff:     -0.109D-01 0.905D-01-0.377D+00 0.130D+01
 Gap=     0.258 Goal=   None    Shift=    0.000
 RMSDP=4.62D-09 MaxDP=4.26D-08 DE=-9.95D-14 OVMax= 3.93D-08

 Cycle  11  Pass 2  IDiag  1:
 SCF Done:  E(RPM7) =  0.287021874754E-01 A.U. after   11 cycles
            NFock= 10  Conv=0.46D-08     -V/T= 1.0005
 KE=-5.384146544568D+01 PE=-1.777891977318D+02 EE= 1.047374136750D+02
 Leave Link  502 at Sat Dec 13 15:02:27 2025, MaxMem=   536870912 cpu:               1.0 elap:               0.5
 (Enter D:\G16W\l801.exe)
 Range of M.O.s used for correlation:     1    35
 NBasis=    35 NAE=    17 NBE=    17 NFC=     0 NFV=     0
 NROrb=     35 NOA=    17 NOB=    17 NVA=    18 NVB=    18
 Leave Link  801 at Sat Dec 13 15:02:27 2025, MaxMem=   536870912 cpu:               0.0 elap:               0.1
 (Enter D:\G16W\l1101.exe)
 Leave Link 1101 at Sat Dec 13 15:02:27 2025, MaxMem=   536870912 cpu:               0.0 elap:               0.1
 (Enter D:\G16W\l1102.exe)
 Symmetrizing basis deriv contribution to polar:
 IMax=3 JMax=2 DiffMx= 0.00D+00
 Leave Link 1102 at Sat Dec 13 15:02:27 2025, MaxMem=   536870912 cpu:               0.0 elap:               0.1
 (Enter D:\G16W\l1110.exe)
 Leave Link 1110 at Sat Dec 13 15:02:27 2025, MaxMem=   536870912 cpu:               0.0 elap:               0.1
 (Enter D:\G16W\l1002.exe)
 Minotr:  Closed shell wavefunction.
 Leave Link 1002 at Sat Dec 13 15:02:27 2025, MaxMem=   536870912 cpu:               0.0 elap:               0.1
 (Enter D:\G16W\l701.exe)
 ... and contract with generalized density number  0.
 Compute integral first derivatives.
 R6Disp: Adding PM7 dispersion energy 1st derivatives to the gradient.
 Leave Link  701 at Sat Dec 13 15:02:28 2025, MaxMem=   536870912 cpu:               1.0 elap:               0.2
 (Enter D:\G16W\l702.exe)
 L702 exits ... SP integral derivatives will be done elsewhere.
 Leave Link  702 at Sat Dec 13 15:02:28 2025, MaxMem=   536870912 cpu:               0.0 elap:               0.1
 (Enter D:\G16W\l703.exe)
 Integral derivatives from FoFJK, PRISM(SPDF).
 Compute integral first derivatives, UseDBF=F ICtDFT=           0.
 Calling FoFJK, ICntrl=      2147 FMM=F ISym2X=0 I1Cent= 0 IOpClX= 0 NMat=1 NMatS=1 NMatT=0.
 FoFJK:  IHMeth=43 ICntrl=    2147 DoSepK=F KAlg= 0 I1Cent=           0 FoldK=F
 IRaf=         0 NMat=       1 IRICut=       1 DoRegI=T DoRafI=F ISym2E= 0 IDoP0=3 IntGTp=3.
 FoFCou: FMM=F IPFlag=           0 FMFlag=      100000 FMFlg1=         800
         NFxFlg=           0 DoJE=F BraDBF=F KetDBF=F FulRan=T
         wScrn=  0.000000 ICntrl=      2147 IOpCl=  0 I1Cent=           0 NGrid=           0
         NMat0=    1 NMatS0=      1 NMatT0=    0 NMatD0=    1 NMtDS0=    0 NMtDT0=    0
 Symmetry not used in FoFCou.
 Leave Link  703 at Sat Dec 13 15:02:28 2025, MaxMem=   536870912 cpu:               0.0 elap:               0.1
 (Enter D:\G16W\l716.exe)
 Dipole        =-5.96893565D+00 8.02066828D-01 4.20771932D-08
 Polarizability= 0.00000000D+00 0.00000000D+00 0.00000000D+00
                 0.00000000D+00 0.00000000D+00 0.00000000D+00
 -------------------------------------------------------------------
 Center     Atomic                   Forces (Hartrees/Bohr)
 Number     Number              X              Y              Z
 -------------------------------------------------------------------
      1        6           0.001089572    0.000677411    0.000000000
      2        6           0.000790613   -0.000495769   -0.000000004
      3        7           0.004561169   -0.001001960    0.000000002
      4        1           0.000053424    0.000028415   -0.000005673
      5        1           0.000066022    0.000048285    0.000000000
      6        1           0.000053424    0.000028415    0.000005672
      7        1           0.000016840   -0.000081119    0.000007392
      8        1           0.000016840   -0.000081119   -0.000007391
      9        1           0.000224120   -0.000008463    0.000063034
     10        1           0.000224121   -0.000008464   -0.000063034
     11        6          -0.012808460    0.002001728    0.000000011
     12       53           0.005695252   -0.001055849    0.000000003
     13        1           0.000032493    0.000109299    0.000233247
     14        1           0.000032506    0.000109305   -0.000233258
     15        1          -0.000047937   -0.000270115   -0.000000001
 -------------------------------------------------------------------
 Cartesian Forces:  Max     0.012808460 RMS     0.002242449
 Z-matrix is all fixed cartesians, so copy forces.
 Leave Link  716 at Sat Dec 13 15:02:28 2025, MaxMem=   536870912 cpu:               0.0 elap:               0.1
 (Enter D:\G16W\l123.exe)
 IRC-IRC-IRC-IRC-IRC-IRC-IRC-IRC-IRC-IRC-IRC-IRC-IRC-IRC-IRC-IRC-IRC-IRC
 Pt  2 Step number   1 out of a maximum of  20
 Using modified Bulirsch-Stoer corrector integration.
   Using distance weighted interpolants to fit PES.
 PreDWI: IReCr0= 2 IReCr1= 1 IReCr2= 1 IReCr3= 1
 Modified Bulirsch-Stoer Extrapolation Cycles:
    EPS =    0.000010000000000
    Cycle     1 NS=    48
      PEZero:  N= 2 I= 1 D=  8.57D-04 Err=  2.57D-06
    Cycle     2 NS=    64 Truncation Error =  0.000002567
 BS completed in    2 cycles and     112 integration steps.
 Maximum DWI energy   std dev =  0.000000964 at pt    36
 Maximum DWI gradient std dev =  0.033266259 at pt    27
 SUMMARY OF CORRECTOR INTEGRATION:
   Predictor End Point Energy =     0.028702
   Old End Point Energy       =     0.028702
   Corrected End Point Energy =     0.028702
   Predictor End-Start Dist.  =     0.164564
   Old End-Start Dist.        =     0.164564
   New End-Start Dist.        =     0.164560
   New End-Old End Dist.      =     0.001483
 CORRECTOR INTEGRATION CONVERGENCE:
   Recorrection delta-x convergence threshold:    0.010000
   Delta-x Convergence Met
 Point Number:   2          Path Number:   1
                    CURRENT STRUCTURE
                Cartesian Coordinates (Ang):                
 ---------------------------------------------------------------------
 Center     Atomic                     Coordinates (Angstroms)
 Number     Number                        X           Y           Z
 ---------------------------------------------------------------------
      1          6                   -5.194347   -0.281081    0.000000
      2          6                   -3.690208   -0.521336    0.000000
      3          7                   -2.916739    0.764563    0.000000
      4          1                   -5.535655    0.268111   -0.886271
      5          1                   -5.742323   -1.236580    0.000000
      6          1                   -5.535655    0.268111    0.886272
      7          1                   -3.384471   -1.115916    0.893044
      8          1                   -3.384471   -1.115916   -0.893045
      9          1                   -3.137933    1.323053    0.826974
     10          1                   -3.137933    1.323053   -0.826974
     11          6                   -1.148712    0.434207    0.000000
     12         53                    1.531703   -0.057021    0.000000
     13          1                   -1.100549   -0.121777   -0.934130
     14          1                   -1.100549   -0.121779    0.934130
     15          1                   -0.814361    1.470559    0.000001
 ---------------------------------------------------------------------
   CHANGE IN THE REACTION COORDINATE =    0.16456
   NET REACTION COORDINATE UP TO THIS POINT =    0.32918
  # OF POINTS ALONG THE PATH =   2
  # OF STEPS =   1

 Calculating another point on the path.
 Point Number  3 in FORWARD path direction.
 Using LQA Reaction Path Following.
   LQA: T_Est iteration completed in    3 iterations.
 IRC-IRC-IRC-IRC-IRC-IRC-IRC-IRC-IRC-IRC-IRC-IRC-IRC-IRC-IRC-IRC-IRC-IRC
 Leave Link  123 at Sat Dec 13 15:02:28 2025, MaxMem=   536870912 cpu:               0.0 elap:               0.1
 (Enter D:\G16W\l202.exe)
                          Input orientation:                          
 ---------------------------------------------------------------------
 Center     Atomic      Atomic             Coordinates (Angstroms)
[...]
            NFock=  9  Conv=0.96D-08     -V/T= 0.9998
 KE=-5.371805081305D+01 PE=-1.763740748192D+02 EE= 1.045265953347D+02
 Leave Link  502 at Sat Dec 13 15:04:28 2025, MaxMem=   536870912 cpu:               0.0 elap:               0.5
 (Enter D:\G16W\l801.exe)
 Range of M.O.s used for correlation:     1    35
 NBasis=    35 NAE=    17 NBE=    17 NFC=     0 NFV=     0
 NROrb=     35 NOA=    17 NOB=    17 NVA=    18 NVB=    18
 Leave Link  801 at Sat Dec 13 15:04:29 2025, MaxMem=   536870912 cpu:               0.0 elap:               0.1
 (Enter D:\G16W\l1101.exe)
 Leave Link 1101 at Sat Dec 13 15:04:29 2025, MaxMem=   536870912 cpu:               0.0 elap:               0.1
 (Enter D:\G16W\l1102.exe)
 Symmetrizing basis deriv contribution to polar:
 IMax=3 JMax=2 DiffMx= 0.00D+00
 Leave Link 1102 at Sat Dec 13 15:04:29 2025, MaxMem=   536870912 cpu:               0.0 elap:               0.1
 (Enter D:\G16W\l1110.exe)
 Leave Link 1110 at Sat Dec 13 15:04:29 2025, MaxMem=   536870912 cpu:               0.0 elap:               0.1
 (Enter D:\G16W\l1002.exe)
 Minotr:  Closed shell wavefunction.
 Leave Link 1002 at Sat Dec 13 15:04:29 2025, MaxMem=   536870912 cpu:               0.0 elap:               0.1
 (Enter D:\G16W\l701.exe)
 ... and contract with generalized density number  0.
 Compute integral first derivatives.
 R6Disp: Adding PM7 dispersion energy 1st derivatives to the gradient.
 Leave Link  701 at Sat Dec 13 15:04:29 2025, MaxMem=   536870912 cpu:               0.0 elap:               0.2
 (Enter D:\G16W\l702.exe)
 L702 exits ... SP integral derivatives will be done elsewhere.
 Leave Link  702 at Sat Dec 13 15:04:30 2025, MaxMem=   536870912 cpu:               1.0 elap:               0.1
 (Enter D:\G16W\l703.exe)
 Integral derivatives from FoFJK, PRISM(SPDF).
 Compute integral first derivatives, UseDBF=F ICtDFT=           0.
 Calling FoFJK, ICntrl=      2147 FMM=F ISym2X=0 I1Cent= 0 IOpClX= 0 NMat=1 NMatS=1 NMatT=0.
 FoFJK:  IHMeth=43 ICntrl=    2147 DoSepK=F KAlg= 0 I1Cent=           0 FoldK=F
 IRaf=         0 NMat=       1 IRICut=       1 DoRegI=T DoRafI=F ISym2E= 0 IDoP0=3 IntGTp=3.
 FoFCou: FMM=F IPFlag=           0 FMFlag=      100000 FMFlg1=         800
         NFxFlg=           0 DoJE=F BraDBF=F KetDBF=F FulRan=T
         wScrn=  0.000000 ICntrl=      2147 IOpCl=  0 I1Cent=           0 NGrid=           0
         NMat0=    1 NMatS0=      1 NMatT0=    0 NMatD0=    1 NMtDS0=    0 NMtDT0=    0
 Symmetry not used in FoFCou.
 Leave Link  703 at Sat Dec 13 15:04:30 2025, MaxMem=   536870912 cpu:               0.0 elap:               0.1
 (Enter D:\G16W\l716.exe)
 Dipole        =-2.08802255D+00 2.55813565D-01 2.29652648D-08
 Polarizability= 0.00000000D+00 0.00000000D+00 0.00000000D+00
                 0.00000000D+00 0.00000000D+00 0.00000000D+00
 -------------------------------------------------------------------
 Center     Atomic                   Forces (Hartrees/Bohr)
 Number     Number              X              Y              Z
 -------------------------------------------------------------------
      1        6          -0.004395767   -0.003269120    0.000000000
      2        6          -0.003387734    0.001978926    0.000000000
      3        7          -0.007591412    0.004199601    0.000000000
      4        1          -0.000495052   -0.000353816    0.000001298
      5        1          -0.000086750   -0.000402002    0.000000000
      6        1          -0.000495052   -0.000353815   -0.000001299
      7        1          -0.000136586    0.000248953   -0.000001492
      8        1          -0.000136586    0.000248952    0.000001492
      9        1          -0.000675724    0.000241528   -0.000009526
     10        1          -0.000675725    0.000241528    0.000009527
     11        6           0.022517438   -0.003742208    0.000000001
     12       53          -0.006979617    0.001273887    0.000000000
     13        1           0.000841847   -0.000040950    0.000109323
     14        1           0.000841848   -0.000040949   -0.000109324
     15        1           0.000854872   -0.000230514    0.000000000
 -------------------------------------------------------------------
 Cartesian Forces:  Max     0.022517438 RMS     0.003933829
 Z-matrix is all fixed cartesians, so copy forces.
 Leave Link  716 at Sat Dec 13 15:04:30 2025, MaxMem=   536870912 cpu:               0.0 elap:               0.1
 (Enter D:\G16W\l123.exe)
 IRC-IRC-IRC-IRC-IRC-IRC-IRC-IRC-IRC-IRC-IRC-IRC-IRC-IRC-IRC-IRC-IRC-IRC
 Pt 40 Step number   1 out of a maximum of  20
 Using modified Bulirsch-Stoer corrector integration.
   Using distance weighted interpolants to fit PES.
 PreDWI: IReCr0= 2 IReCr1= 1 IReCr2= 1 IReCr3= 1
 Modified Bulirsch-Stoer Extrapolation Cycles:
    EPS =    0.000010000000000
    Cycle     1 NS=    48
      PEZero:  N= 2 I= 1 D=  8.57D-04 Err=  4.66D-05
    Cycle     2 NS=    64 Truncation Error =  0.000046560
      PEZero:  N= 3 I= 2 D=  8.57D-04 Err=  3.11D-05
      PEZero:  N= 3 I= 1 D=  1.71D-03 Err=  5.64D-08
    Cycle     3 NS=    96 Truncation Error =  0.000000056
 BS completed in    3 cycles and     208 integration steps.
 Maximum DWI energy   std dev =  0.000002148 at pt    35
 Maximum DWI gradient std dev =  0.009090151 at pt    59
 SUMMARY OF CORRECTOR INTEGRATION:
   Predictor End Point Energy =    -0.008830
   Old End Point Energy       =    -0.008830
   Corrected End Point Energy =    -0.008830
   Predictor End-Start Dist.  =     0.164561
   Old End-Start Dist.        =     0.164561
   New End-Start Dist.        =     0.164516
   New End-Old End Dist.      =     0.001016
 CORRECTOR INTEGRATION CONVERGENCE:
   Recorrection delta-x convergence threshold:    0.010000
   Delta-x Convergence Met
 Point Number:  20          Path Number:   2
                    CURRENT STRUCTURE
                Cartesian Coordinates (Ang):                
 ---------------------------------------------------------------------
 Center     Atomic                     Coordinates (Angstroms)
 Number     Number                        X           Y           Z
 ---------------------------------------------------------------------
      1          6                   -5.243227   -0.313077    0.000000
      2          6                   -3.726046   -0.502584    0.000000
      3          7                   -3.041374    0.806219    0.000000
      4          1                   -5.578295    0.240574   -0.884626
      5          1                   -5.770981   -1.272854    0.000000
      6          1                   -5.578295    0.240574    0.884627
      7          1                   -3.394380   -1.079275    0.890772
      8          1                   -3.394380   -1.079275   -0.890773
      9          1                   -3.278264    1.348429    0.817763
     10          1                   -3.278264    1.348429   -0.817763
     11          6                   -0.640071    0.348559    0.000000
     12         53                    1.507440   -0.052488    0.000000
     13          1                   -1.049431   -0.104588   -0.902757
     14          1                   -1.049431   -0.104590    0.902757
     15          1                   -0.763309    1.431427    0.000001
 ---------------------------------------------------------------------
   CHANGE IN THE REACTION COORDINATE =    0.16452
   NET REACTION COORDINATE UP TO THIS POINT =    3.29155
  # OF POINTS ALONG THE PATH =  40
  # OF STEPS =   1

 Maximum number of steps reached.
 Calculation of REVERSE path complete.
 Reaction path calculation complete.
 
 Energies reported relative to the TS energy of           0.029379
 --------------------------------------------------------------------------
    Summary of reaction path following
 --------------------------------------------------------------------------
                        Energy    RxCoord
   1                   -0.03821  -3.29155
   2                   -0.03681  -3.12703
   3                   -0.03512  -2.96247
   4                   -0.03317  -2.79789
   5                   -0.03099  -2.63331
   6                   -0.02862  -2.46873
   7                   -0.02611  -2.30414
   8                   -0.02349  -2.13956
   9                   -0.02082  -1.97498
  10                   -0.01813  -1.81039
  11                   -0.01548  -1.64581
  12                   -0.01290  -1.48123
  13                   -0.01045  -1.31664
  14                   -0.00818  -1.15206
  15                   -0.00611  -0.98748
  16                   -0.00430  -0.82290
  17                   -0.00278  -0.65832
  18                   -0.00157  -0.49375
  19                   -0.00070  -0.32918
  20                   -0.00017  -0.16462
  21                    0.00000   0.00000
  22                   -0.00017   0.16462
  23                   -0.00068   0.32918
  24                   -0.00149   0.49375
  25                   -0.00257   0.65832
  26                   -0.00388   0.82290
  27                   -0.00535   0.98748
  28                   -0.00690   1.15205
  29                   -0.00845   1.31661
  30                   -0.00990   1.48113
  31                   -0.01116   1.64553
  32                   -0.01218   1.80964
  33                   -0.01297   1.97345
  34                   -0.01358   2.13737
  35                   -0.01409   2.30146
  36                   -0.01451   2.46563
  37                   -0.01488   2.62994
  38                   -0.01521   2.79438
  39                   -0.01552   2.95891
  40                   -0.01579   3.12345
  41                   -0.01605   3.28790
 --------------------------------------------------------------------------
 
 Total number of points:                   40
 Total number of gradient calculations:    41
 Total number of Hessian calculations:      1
 IRC-IRC-IRC-IRC-IRC-IRC-IRC-IRC-IRC-IRC-IRC-IRC-IRC-IRC-IRC-IRC-IRC-IRC
 Leave Link  123 at Sat Dec 13 15:04:30 2025, MaxMem=   536870912 cpu:               0.0 elap:               0.2
 (Enter D:\G16W\l202.exe)
                          Input orientation:                          
 ---------------------------------------------------------------------
 Center     Atomic      Atomic             Coordinates (Angstroms)
 Number     Number       Type             X           Y           Z
 ---------------------------------------------------------------------
      1          6           0       -5.243209   -0.313054    0.000000
      2          6           0       -3.726018   -0.502594    0.000000
      3          7           0       -3.041303    0.806191    0.000000
      4          1           0       -5.578314    0.240570   -0.884625
      5          1           0       -5.770999   -1.272858    0.000000
      6          1           0       -5.578314    0.240569    0.884626
      7          1           0       -3.394369   -1.079264    0.890781
      8          1           0       -3.394369   -1.079264   -0.890782
      9          1           0       -3.278288    1.348418    0.817738
     10          1           0       -3.278288    1.348419   -0.817738
     11          6           0       -0.640031    0.348557    0.000000
     12         53           0        1.507426   -0.052486    0.000000
     13          1           0       -1.049510   -0.104477   -0.902589
     14          1           0       -1.049510   -0.104479    0.902588
     15          1           0       -0.763396    1.431237    0.000001
 ---------------------------------------------------------------------
                    Distance matrix (angstroms):
                    1          2          3          4          5
     1  C    0.000000
     2  C    1.528985   0.000000
     3  N    2.470041   1.477076   0.000000
     4  H    1.096064   2.183084   2.745709   0.000000
     5  H    1.095347   2.185235   3.431280   1.763562   0.000000
     6  H    1.096064   2.183084   2.745709   1.769250   1.763562
     7  H    2.190612   1.111769   2.114967   3.108641   2.545455
     8  H    2.190612   1.111769   2.114967   2.551787   2.545455
     9  H    2.700019   2.072536   1.009390   3.068467   3.708557
    10  H    2.700019   2.072536   1.009390   2.553806   3.708557
    11  C    4.650481   3.201214   2.444490   5.018053   5.381060
    12  I    6.755662   5.252764   4.629067   7.146759   7.380025
    13  H    4.294797   2.852518   2.368802   4.541965   4.946942
    14  H    4.294797   2.852517   2.368802   4.880907   4.946942
    15  H    4.807419   3.537913   2.362105   5.038223   5.691064
                    6          7          8          9         10
     6  H    0.000000
     7  H    2.551787   0.000000
     8  H    3.108641   1.781563   0.000000
     9  H    2.553806   2.431553   2.970885   0.000000
    10  H    3.068467   2.970885   2.431553   1.635476   0.000000
    11  C    5.018053   3.227776   3.227776   2.937485   2.937485
    12  I    7.146758   5.086782   5.086783   5.053146   5.053146
    13  H    4.880908   3.108818   2.539431   3.168262   2.661871
    14  H    4.541965   2.539430   3.108817   2.661872   3.168262
    15  H    5.038222   3.744078   3.744078   2.645796   2.645796
                   11         12         13         14         15
    11  C    0.000000
    12  I    2.184584   0.000000
    13  H    1.089761   2.712064   0.000000
    14  H    1.089761   2.712064   1.805177   0.000000
    15  H    1.089686   2.712576   1.804147   1.804147   0.000000
 Symmetry turned off by external request.
 Stoichiometry    C3H10IN
 Framework group  C1[X(C3H10IN)]
 Deg. of freedom    39
 Full point group                 C1      NOp   1
 Rotational constants (GHZ):          16.2371134           0.4725619           0.4644018
 Leave Link  202 at Sat Dec 13 15:04:30 2025, MaxMem=   536870912 cpu:               0.0 elap:               0.1
 (Enter D:\G16W\l601.exe)
 Copying SCF densities to generalized density rwf, IOpCl= 0 IROHF=0.

 **********************************************************************

            Population analysis using the SCF density.

 **********************************************************************

 Alpha  occ. eigenvalues --   -1.32197  -0.97813  -0.94186  -0.79652  -0.76386
 Alpha  occ. eigenvalues --   -0.65501  -0.58247  -0.54438  -0.53973  -0.52394
 Alpha  occ. eigenvalues --   -0.52279  -0.48637  -0.44997  -0.41464  -0.35569
 Alpha  occ. eigenvalues --   -0.32108  -0.32106
 Alpha virt. eigenvalues --    0.03635   0.11607   0.14118   0.17967   0.19104
 Alpha virt. eigenvalues --    0.19997   0.20474   0.20743   0.20820   0.22094
 Alpha virt. eigenvalues --    0.23858   0.23934   0.24351   4.57938   4.57943
 Alpha virt. eigenvalues --    4.58323   4.58324   4.58777
          Condensed to atoms (all electrons):
               1          2          3          4          5          6
     1  C    4.488611   0.000000   0.000000   0.000000   0.000000   0.000000
     2  C    0.000000   4.082672   0.000000   0.000000   0.000000   0.000000
     3  N    0.000000   0.000000   5.653948   0.000000   0.000000   0.000000
     4  H    0.000000   0.000000   0.000000   0.851810   0.000000   0.000000
     5  H    0.000000   0.000000   0.000000   0.000000   0.845980   0.000000
     6  H    0.000000   0.000000   0.000000   0.000000   0.000000   0.851810
     7  H    0.000000   0.000000   0.000000   0.000000   0.000000   0.000000
     8  H    0.000000   0.000000   0.000000   0.000000   0.000000   0.000000
     9  H    0.000000   0.000000   0.000000   0.000000   0.000000   0.000000
    10  H    0.000000   0.000000   0.000000   0.000000   0.000000   0.000000
    11  C    0.000000   0.000000   0.000000   0.000000   0.000000   0.000000
    12  I    0.000000   0.000000   0.000000   0.000000   0.000000   0.000000
    13  H    0.000000   0.000000   0.000000   0.000000   0.000000   0.000000
    14  H    0.000000   0.000000   0.000000   0.000000   0.000000   0.000000
    15  H    0.000000   0.000000   0.000000   0.000000   0.000000   0.000000
               7          8          9         10         11         12
     1  C    0.000000   0.000000   0.000000   0.000000   0.000000   0.000000
     2  C    0.000000   0.000000   0.000000   0.000000   0.000000   0.000000
     3  N    0.000000   0.000000   0.000000   0.000000   0.000000   0.000000
     4  H    0.000000   0.000000   0.000000   0.000000   0.000000   0.000000
     5  H    0.000000   0.000000   0.000000   0.000000   0.000000   0.000000
     6  H    0.000000   0.000000   0.000000   0.000000   0.000000   0.000000
     7  H    0.858575   0.000000   0.000000   0.000000   0.000000   0.000000
     8  H    0.000000   0.858575   0.000000   0.000000   0.000000   0.000000
     9  H    0.000000   0.000000   0.749708   0.000000   0.000000   0.000000
    10  H    0.000000   0.000000   0.000000   0.749708   0.000000   0.000000
    11  C    0.000000   0.000000   0.000000   0.000000   4.346000   0.000000
    12  I    0.000000   0.000000   0.000000   0.000000   0.000000   7.152230
    13  H    0.000000   0.000000   0.000000   0.000000   0.000000   0.000000
    14  H    0.000000   0.000000   0.000000   0.000000   0.000000   0.000000
    15  H    0.000000   0.000000   0.000000   0.000000   0.000000   0.000000
              13         14         15
     1  C    0.000000   0.000000   0.000000
     2  C    0.000000   0.000000   0.000000
     3  N    0.000000   0.000000   0.000000
     4  H    0.000000   0.000000   0.000000
     5  H    0.000000   0.000000   0.000000
     6  H    0.000000   0.000000   0.000000
     7  H    0.000000   0.000000   0.000000
     8  H    0.000000   0.000000   0.000000
     9  H    0.000000   0.000000   0.000000
    10  H    0.000000   0.000000   0.000000
    11  C    0.000000   0.000000   0.000000
    12  I    0.000000   0.000000   0.000000
    13  H    0.836568   0.000000   0.000000
    14  H    0.000000   0.836568   0.000000
    15  H    0.000000   0.000000   0.837237
 Mulliken charges:
               1
     1  C   -0.488611
     2  C   -0.082672
     3  N   -0.653948
     4  H    0.148190
     5  H    0.154020
     6  H    0.148190
     7  H    0.141425
     8  H    0.141425
     9  H    0.250292
    10  H    0.250292
    11  C   -0.346000
    12  I   -0.152230
    13  H    0.163432
    14  H    0.163432
    15  H    0.162763
 Sum of Mulliken charges =   0.00000
 Mulliken charges with hydrogens summed into heavy atoms:
               1
     1  C   -0.038212
     2  C    0.200178
     3  N   -0.153364
    11  C    0.143628
    12  I   -0.152230
 APT charges:
               1
     1  C   -0.488611
     2  C   -0.082672
     3  N   -0.653948
     4  H    0.148190
     5  H    0.154020
     6  H    0.148190
     7  H    0.141425
     8  H    0.141425
     9  H    0.250292
    10  H    0.250292
    11  C   -0.346000
    12  I   -0.152230
    13  H    0.163432
    14  H    0.163432
    15  H    0.162763
 Sum of APT charges =   0.00000
 APT charges with hydrogens summed into heavy atoms:
               1
     1  C   -0.038212
     2  C    0.200178
     3  N   -0.153364
    11  C    0.143628
    12  I   -0.152230
 Charge=              0.0000 electrons
 Dipole moment (field-independent basis, Debye):
    X=             -5.3072    Y=              0.6502    Z=              0.0000  Tot=              5.3469
 N-N= 1.255567006308D+02 E-N=-1.763740745897D+02  KE=-5.371805081305D+01
  Exact polarizability:   0.000   0.000   0.000   0.000   0.000   0.000
 Approx polarizability:  41.802  -3.138  22.246   0.000   0.000  19.380
 Leave Link  601 at Sat Dec 13 15:04:30 2025, MaxMem=   536870912 cpu:               0.0 elap:               0.1
 (Enter D:\G16W\l9999.exe)

 This type of calculation cannot be archived.


 ... IT IS NO ONE DREAME THAT
     CAN PLEASE THESE ALL ...

                -- BEN JONSON
 Job cpu time:       0 days  0 hours  2 minutes 13.0 seconds.
 Elapsed time:       0 days  0 hours  1 minutes 40.6 seconds.
 File lengths (MBytes):  RWF=     11 Int=      0 D2E=      0 Chk=      4 Scr=      1
 Normal termination of Gaussian 16 at Sat Dec 13 15:04:31 2025.
