 Entering Gaussian System, Link 0=g16.exe
 Input=Me2NH_Smart_ts.gjf
 Output=Me2NH_Smart_ts.log
 Initial command:
 D:\G16W\l1.exe ".\Gau-30648.inp" "Me2NH_Smart_ts.log" /scrdir=".\"
 Entering Link 1 = D:\G16W\l1.exe PID=     10464.
  
 Copyright (c) 1988,1990,1992,1993,1995,1998,2003,2009,2016,
            Gaussian, Inc.  All Rights Reserved.
  
 This is part of the Gaussian(R) 16 program.  It is based on
 the Gaussian(R) 09 system (copyright 2009, Gaussian, Inc.),
 the Gaussian(R) 03 system (copyright 2003, Gaussian, Inc.),
 the Gaussian(R) 98 system (copyright 1998, Gaussian, Inc.),
 the Gaussian(R) 94 system (copyright 1995, Gaussian, Inc.),
 the Gaussian 92(TM) system (copyright 1992, Gaussian, Inc.),
 the Gaussian 90(TM) system (copyright 1990, Gaussian, Inc.),
 the Gaussian 88(TM) system (copyright 1988, Gaussian, Inc.),
 the Gaussian 86(TM) system (copyright 1986, Carnegie Mellon
 University), and the Gaussian 82(TM) system (copyright 1983,
 Carnegie Mellon University). Gaussian is a federally registered
 trademark of Gaussian, Inc.
  
 This software contains proprietary and confidential information,
 including trade secrets, belonging to Gaussian, Inc.
  
 This software is provided under written license and may be
 used, copied, transmitted, or stored only in accord with that
 written license.
  
 The following legend is applicable only to US Government
 contracts under FAR:
  
                    RESTRICTED RIGHTS LEGEND
  
 Use, reproduction and disclosure by the US Government is
 subject to restrictions as set forth in subparagraphs (a)
 and (c) of the Commercial Computer Software - Restricted
 Rights clause in FAR 52.227-19.
  
 Gaussian, Inc.
 340 Quinnipiac St., Bldg. 40, Wallingford CT 06492
  
  
 ---------------------------------------------------------------
 Warning -- This program may not be used in any manner that
 competes with the business of Gaussian, Inc. or will provide
 assistance to any competitor of Gaussian, Inc.  The licensee
 of this program is prohibited from giving any competitor of
 Gaussian, Inc. access to this program.  By using this program,
 the user acknowledges that Gaussian, Inc. is engaged in the
 business of creating and licensing software in the field of
 computational chemistry and represents and warrants to the
 licensee that it is not a competitor of Gaussian, Inc. and that
 it will not use this program in any manner prohibited above.
 ---------------------------------------------------------------
  

 Cite this work as:
 Gaussian 16, Revision A.03,
 M. J. Frisch, G. W. Trucks, H. B. Schlegel, G. E. Scuseria, 
 M. A. Robb, J. R. Cheeseman, G. Scalmani, V. Barone, 
 G. A. Petersson, H. Nakatsuji, X. Li, M. Caricato, A. V. Marenich, 
 J. Bloino, B. G. Janesko, R. Gomperts, B. Mennucci, H. P. Hratchian, 
 J. V. Ortiz, A. F. Izmaylov, J. L. Sonnenberg, D. Williams-Young, 
 F. Ding, F. Lipparini, F. Egidi, J. Goings, B. Peng, A. Petrone, 
 T. Henderson, D. Ranasinghe, V. G. Zakrzewski, J. Gao, N. Rega, 
 G. Zheng, W. Liang, M. Hada, M. Ehara, K. Toyota, R. Fukuda, 
 J. Hasegawa, M. Ishida, T. Nakajima, Y. Honda, O. Kitao, H. Nakai, 
 T. Vreven, K. Throssell, J. A. Montgomery, Jr., J. E. Peralta, 
 F. Ogliaro, M. J. Bearpark, J. J. Heyd, E. N. Brothers, K. N. Kudin, 
 V. N. Staroverov, T. A. Keith, R. Kobayashi, J. Normand, 
 K. Raghavachari, A. P. Rendell, J. C. Burant, S. S. Iyengar, 
 J. Tomasi, M. Cossi, J. M. Millam, M. Klene, C. Adamo, R. Cammi, 
 J. W. Ochterski, R. L. Martin, K. Morokuma, O. Farkas, 
 J. B. Foresman, and D. J. Fox, Gaussian, Inc., Wallingford CT, 2016.
 
 ******************************************
 Gaussian 16:  EM64W-G16RevA.03 17-Dec-2016
                13-Dec-2025 
 ******************************************
 %nproc=6
 Will use up to    6 processors via shared memory.
 %mem=4GB
 -------------------------------
 #PM7 opt(ts,calcall,noeig) freq
 -------------------------------
 1/5=1,10=4,11=1,18=20,26=1,38=1/1,3;
 2/9=110,12=2,17=6,18=5,40=1/2;
 3/5=2,25=1,41=4200000,71=2,140=1/1,2,3;
 4/35=1/1;
 5/5=2,35=1,38=5/2;
 8/6=4,10=90,11=11/1;
 11/6=1,8=1,9=11,15=111,16=1/1,2,10;
 10/6=1/2;
 6/7=2,8=2,9=2,10=2,18=1,28=1/1;
 7/10=1,25=1/1,2,3,16;
 1/5=1,10=4,11=1,18=20,26=1/3(3);
 2/9=110/2;
 7/8=1,9=1,25=1,44=-1/16;
 99//99;
 2/9=110/2;
 3/5=2,25=1,41=4200000,71=2,135=20,140=1/1,2,3;
 4/5=5,16=3,35=1/1;
 5/5=2,35=1,38=5/2;
 8/6=4,10=90,11=11/1;
 11/6=1,8=1,9=11,15=111,16=1/1,2,10;
 10/6=1/2;
 7/10=1,25=1/1,2,3,16;
 1/5=1,10=4,11=1,18=20,26=1/3(-8);
 2/9=110/2;
 6/7=2,8=2,9=2,10=2,18=1,19=2,28=1/1;
 7/8=1,9=1,25=1,44=-1/16;
 99//99;
 Leave Link    1 at Sat Dec 13 16:27:49 2025, MaxMem=   536870912 cpu:               0.0 elap:               0.1
 (Enter D:\G16W\l101.exe)
 ---------------------
 title: Me2NH_Smart_TS
 ---------------------
 Symbolic Z-matrix:
 Charge =  0 Multiplicity = 1
 C                     3.36864  -1.22806  -0.22229 
 N                     2.8283    0.00001   0.41653 
 C                     3.36887   1.22796  -0.22233 
 H                     4.46645  -1.29333  -0.16003 
 H                     2.94265  -2.12534   0.26371 
 H                     3.08609  -1.26698  -1.29044 
 H                     3.03245  0.         1.42619 
 H                     2.94324   2.12533   0.2638 
 H                     4.46671   1.29292  -0.16023 
 H                     3.08614   1.26701  -1.29043 
 C                     0.98568   0.00009   0.23655 
 I                    -1.74968   0.       -0.02631 
 H                     0.80805  -0.93274   0.762 
 H                     0.95595  -0.00081  -0.84797 
 H                     0.80815   0.93379   0.76046 
 
 Add virtual bond connecting atoms C11        and N2         Dist= 3.50D+00.
 Add virtual bond connecting atoms I12        and C11        Dist= 5.19D+00.
 Add virtual bond connecting atoms I12        and H13        Dist= 5.36D+00.
 Add virtual bond connecting atoms I12        and H14        Dist= 5.34D+00.
 Add virtual bond connecting atoms I12        and H15        Dist= 5.36D+00.
 Add atom     12 valence  4 ND=      0 dihedral      11     12     13     14
 Add atom     12 valence  4 ND=      0 dihedral      11     12     13     15
 Add atom     12 valence  4 ND=      0 dihedral      11     12     14     15
 ITRead=  0  0  0  0  0  0  0  0  0  0  0  0  0  0  0
 MicOpt= -1 -1 -1 -1 -1 -1 -1 -1 -1 -1 -1 -1 -1 -1 -1
 NAtoms=     15 NQM=       15 NQMF=       0 NMMI=      0 NMMIF=      0
                NMic=       0 NMicF=      0.
                    Isotopes and Nuclear Properties:
 (Nuclear quadrupole moments (NQMom) in fm**2, nuclear magnetic moments (NMagM)
  in nuclear magnetons)

  Atom         1           2           3           4           5           6           7           8           9          10
 IAtWgt=          12          14          12           1           1           1           1           1           1           1
 AtmWgt=  12.0000000  14.0030740  12.0000000   1.0078250   1.0078250   1.0078250   1.0078250   1.0078250   1.0078250   1.0078250
 NucSpn=           0           2           0           1           1           1           1           1           1           1
 AtZEff=   0.0000000   0.0000000   0.0000000   0.0000000   0.0000000   0.0000000   0.0000000   0.0000000   0.0000000   0.0000000
 NQMom=    0.0000000   2.0440000   0.0000000   0.0000000   0.0000000   0.0000000   0.0000000   0.0000000   0.0000000   0.0000000
 NMagM=    0.0000000   0.4037610   0.0000000   2.7928460   2.7928460   2.7928460   2.7928460   2.7928460   2.7928460   2.7928460
 AtZNuc=   6.0000000   7.0000000   6.0000000   1.0000000   1.0000000   1.0000000   1.0000000   1.0000000   1.0000000   1.0000000

  Atom        11          12          13          14          15
 IAtWgt=          12         127           1           1           1
 AtmWgt=  12.0000000 126.9004000   1.0078250   1.0078250   1.0078250
 NucSpn=           0           5           1           1           1
 AtZEff=   0.0000000   0.0000000   0.0000000   0.0000000   0.0000000
 NQMom=    0.0000000 -71.0000000   0.0000000   0.0000000   0.0000000
 NMagM=    0.0000000   2.8132800   2.7928460   2.7928460   2.7928460
 AtZNuc=   6.0000000  53.0000000   1.0000000   1.0000000   1.0000000
 Leave Link  101 at Sat Dec 13 16:27:50 2025, MaxMem=   536870912 cpu:               1.0 elap:               0.3
 (Enter D:\G16W\l103.exe)

 GradGradGradGradGradGradGradGradGradGradGradGradGradGradGradGradGradGrad
 Berny optimization.
 Initialization pass.
                           ----------------------------
                           !    Initial Parameters    !
                           ! (Angstroms and Degrees)  !
 --------------------------                            --------------------------
 ! Name  Definition              Value          Derivative Info.                !
 --------------------------------------------------------------------------------
 ! R1    R(1,2)                  1.486          calculate D2E/DX2 analytically  !
 ! R2    R(1,4)                  1.1015         calculate D2E/DX2 analytically  !
 ! R3    R(1,5)                  1.1058         calculate D2E/DX2 analytically  !
 ! R4    R(1,6)                  1.1056         calculate D2E/DX2 analytically  !
 ! R5    R(2,3)                  1.486          calculate D2E/DX2 analytically  !
 ! R6    R(2,7)                  1.0301         calculate D2E/DX2 analytically  !
 ! R7    R(2,11)                 1.8514         calculate D2E/DX2 analytically  !
 ! R8    R(3,8)                  1.1058         calculate D2E/DX2 analytically  !
 ! R9    R(3,9)                  1.1015         calculate D2E/DX2 analytically  !
 ! R10   R(3,10)                 1.1056         calculate D2E/DX2 analytically  !
 ! R11   R(11,12)                2.748          calculate D2E/DX2 analytically  !
 ! R12   R(11,13)                1.0853         calculate D2E/DX2 analytically  !
 ! R13   R(11,14)                1.0849         calculate D2E/DX2 analytically  !
 ! R14   R(11,15)                1.0853         calculate D2E/DX2 analytically  !
 ! R15   R(12,13)                2.8343         calculate D2E/DX2 analytically  !
 ! R16   R(12,14)                2.8276         calculate D2E/DX2 analytically  !
 ! R17   R(12,15)                2.8343         calculate D2E/DX2 analytically  !
 ! A1    A(2,1,4)              112.7723         calculate D2E/DX2 analytically  !
 ! A2    A(2,1,5)              109.9734         calculate D2E/DX2 analytically  !
 ! A3    A(2,1,6)              110.5791         calculate D2E/DX2 analytically  !
 ! A4    A(4,1,5)              108.1206         calculate D2E/DX2 analytically  !
 ! A5    A(4,1,6)              107.8922         calculate D2E/DX2 analytically  !
 ! A6    A(5,1,6)              107.3136         calculate D2E/DX2 analytically  !
 ! A7    A(1,2,3)              111.4581         calculate D2E/DX2 analytically  !
 ! A8    A(1,2,7)              110.4435         calculate D2E/DX2 analytically  !
 ! A9    A(1,2,11)             108.6716         calculate D2E/DX2 analytically  !
 ! A10   A(3,2,7)              110.4443         calculate D2E/DX2 analytically  !
 ! A11   A(3,2,11)             108.6768         calculate D2E/DX2 analytically  !
 ! A12   A(7,2,11)             107.0096         calculate D2E/DX2 analytically  !
 ! A13   A(2,3,8)              109.973          calculate D2E/DX2 analytically  !
 ! A14   A(2,3,9)              112.7719         calculate D2E/DX2 analytically  !
 ! A15   A(2,3,10)             110.5788         calculate D2E/DX2 analytically  !
 ! A16   A(8,3,9)              108.1195         calculate D2E/DX2 analytically  !
 ! A17   A(8,3,10)             107.314          calculate D2E/DX2 analytically  !
 ! A18   A(9,3,10)             107.8941         calculate D2E/DX2 analytically  !
 ! A19   A(2,11,13)             96.6491         calculate D2E/DX2 analytically  !
 ! A20   A(2,11,14)             97.1488         calculate D2E/DX2 analytically  !
 ! A21   A(2,11,15)             96.6563         calculate D2E/DX2 analytically  !
 ! A22   A(13,11,14)           118.6064         calculate D2E/DX2 analytically  !
 ! A23   A(13,11,15)           118.6195         calculate D2E/DX2 analytically  !
 ! A24   A(14,11,15)           118.6068         calculate D2E/DX2 analytically  !
 ! A25   A(13,12,14)            38.4871         calculate D2E/DX2 analytically  !
 ! A26   A(13,12,15)            38.4491         calculate D2E/DX2 analytically  !
 ! A27   A(14,12,15)            38.4871         calculate D2E/DX2 analytically  !
 ! A28   L(2,11,12,13,-1)      179.9515         calculate D2E/DX2 analytically  !
 ! A29   L(2,11,12,13,-2)      179.924          calculate D2E/DX2 analytically  !
 ! D1    D(4,1,2,3)             59.8591         calculate D2E/DX2 analytically  !
 ! D2    D(4,1,2,7)            -63.3062         calculate D2E/DX2 analytically  !
 ! D3    D(4,1,2,11)           179.5963         calculate D2E/DX2 analytically  !
 ! D4    D(5,1,2,3)           -179.379          calculate D2E/DX2 analytically  !
 ! D5    D(5,1,2,7)             57.4556         calculate D2E/DX2 analytically  !
 ! D6    D(5,1,2,11)           -59.6419         calculate D2E/DX2 analytically  !
 ! D7    D(6,1,2,3)            -61.0398         calculate D2E/DX2 analytically  !
 ! D8    D(6,1,2,7)            175.7948         calculate D2E/DX2 analytically  !
 ! D9    D(6,1,2,11)            58.6973         calculate D2E/DX2 analytically  !
 ! D10   D(1,2,3,8)            179.3918         calculate D2E/DX2 analytically  !
 ! D11   D(1,2,3,9)            -59.8484         calculate D2E/DX2 analytically  !
 ! D12   D(1,2,3,10)            61.0526         calculate D2E/DX2 analytically  !
 ! D13   D(7,2,3,8)            -57.4432         calculate D2E/DX2 analytically  !
 ! D14   D(7,2,3,9)             63.3166         calculate D2E/DX2 analytically  !
 ! D15   D(7,2,3,10)          -175.7824         calculate D2E/DX2 analytically  !
 ! D16   D(11,2,3,8)            59.6578         calculate D2E/DX2 analytically  !
 ! D17   D(11,2,3,9)          -179.5824         calculate D2E/DX2 analytically  !
 ! D18   D(11,2,3,10)          -58.6815         calculate D2E/DX2 analytically  !
 ! D19   D(1,2,11,13)           59.3466         calculate D2E/DX2 analytically  !
 ! D20   D(1,2,11,14)          -60.6818         calculate D2E/DX2 analytically  !
 ! D21   D(1,2,11,15)          179.2878         calculate D2E/DX2 analytically  !
 ! D22   D(3,2,11,13)         -179.1978         calculate D2E/DX2 analytically  !
 ! D23   D(3,2,11,14)           60.7738         calculate D2E/DX2 analytically  !
 ! D24   D(3,2,11,15)          -59.2566         calculate D2E/DX2 analytically  !
 ! D25   D(7,2,11,13)          -59.9238         calculate D2E/DX2 analytically  !
 ! D26   D(7,2,11,14)         -179.9522         calculate D2E/DX2 analytically  !
 ! D27   D(7,2,11,15)           60.0175         calculate D2E/DX2 analytically  !
 ! D28   D(11,12,13,14)        -31.9898         calculate D2E/DX2 analytically  !
 ! D29   D(11,12,13,15)         31.9955         calculate D2E/DX2 analytically  !
 ! D30   D(11,12,14,15)        -31.9437         calculate D2E/DX2 analytically  !
 --------------------------------------------------------------------------------
 Trust Radius=3.00D-01 FncErr=1.00D-07 GrdErr=1.00D-07 EigMax=2.50D+02 EigMin=1.00D-04
 Number of steps in this run=     86 maximum allowed number of steps=    100.
 Search for a saddle point of order  1.
 GradGradGradGradGradGradGradGradGradGradGradGradGradGradGradGradGradGrad

 Leave Link  103 at Sat Dec 13 16:27:50 2025, MaxMem=   536870912 cpu:               0.0 elap:               0.1
 (Enter D:\G16W\l202.exe)
                          Input orientation:                          
 ---------------------------------------------------------------------
 Center     Atomic      Atomic             Coordinates (Angstroms)
 Number     Number       Type             X           Y           Z
 ---------------------------------------------------------------------
      1          6           0        3.368637   -1.228061   -0.222285
      2          7           0        2.828297    0.000009    0.416525
      3          6           0        3.368874    1.227957   -0.222325
      4          1           0        4.466447   -1.293328   -0.160030
      5          1           0        2.942653   -2.125343    0.263707
      6          1           0        3.086090   -1.266984   -1.290436
      7          1           0        3.032450   -0.000002    1.426192
      8          1           0        2.943235    2.125331    0.263795
      9          1           0        4.466710    1.292915   -0.160234
     10          1           0        3.086138    1.267010   -1.290426
     11          6           0        0.985676    0.000087    0.236548
     12         53           0       -1.749681    0.000004   -0.026309
     13          1           0        0.808053   -0.932740    0.761999
     14          1           0        0.955948   -0.000807   -0.847969
     15          1           0        0.808148    0.933791    0.760461
 ---------------------------------------------------------------------
                    Distance matrix (angstroms):
                    1          2          3          4          5
     1  C    0.000000
     2  N    1.486002   0.000000
     3  C    2.456018   1.486004   0.000000
     4  H    1.101509   2.165334   2.750532   0.000000
     5  H    1.105787   2.133905   3.415042   1.787107   0.000000
     6  H    1.105574   2.141365   2.728655   1.784348   1.781212
     7  H    2.082937   1.030100   2.082948   2.499028   2.424151
     8  H    3.415037   2.133900   1.105785   3.766568   4.250674
     9  H    2.750443   2.165330   1.101507   2.586243   3.766559
    10  H    2.728756   2.141368   1.105579   3.120638   3.734163
    11  C    2.719812   1.851390   2.719901   3.734429   2.889282
    12  I    5.267232   4.599346   5.267437   6.350656   5.159381
    13  H    2.759098   2.251835   3.492178   3.789988   2.495419
    14  H    2.778255   2.259344   2.779119   3.803613   3.113916
    15  H    3.492205   2.251942   2.758572   4.380698   3.763134
                    6          7          8          9         10
     6  H    0.000000
     7  H    2.998031   0.000000
     8  H    3.734145   2.424081   0.000000
     9  H    3.120345   2.499097   1.787091   0.000000
    10  H    2.533994   2.998035   1.781218   1.784372   0.000000
    11  C    2.889444   2.367390   2.889540   3.734493   2.889409
    12  I    5.156351   4.997853   5.159907   6.350832   5.156398
    13  H    3.084422   2.501818   3.762846   4.380619   3.773728
    14  H    2.517238   3.079557   3.115412   3.804227   2.518102
    15  H    3.773408   2.502536   2.495003   3.789687   3.083247
                   11         12         13         14         15
    11  C    0.000000
    12  I    2.747958   0.000000
    13  H    1.085272   2.834333   0.000000
    14  H    1.084925   2.827641   1.866111   0.000000
    15  H    1.085267   2.834335   1.866532   1.866110   0.000000
 Stoichiometry    C3H10IN
 Framework group  C1[X(C3H10IN)]
 Deg. of freedom    39
 Full point group                 C1      NOp   1
 Largest Abelian subgroup         C1      NOp   1
 Largest concise Abelian subgroup C1      NOp   1
                         Standard orientation:                         
 ---------------------------------------------------------------------
 Center     Atomic      Atomic             Coordinates (Angstroms)
 Number     Number       Type             X           Y           Z
 ---------------------------------------------------------------------
      1          6           0        3.368637    1.228061    0.222285
      2          7           0        2.828297   -0.000009   -0.416525
      3          6           0        3.368874   -1.227957    0.222325
      4          1           0        4.466447    1.293328    0.160030
      5          1           0        2.942653    2.125343   -0.263707
      6          1           0        3.086090    1.266984    1.290436
      7          1           0        3.032450    0.000002   -1.426192
      8          1           0        2.943235   -2.125331   -0.263795
      9          1           0        4.466710   -1.292915    0.160234
     10          1           0        3.086138   -1.267010    1.290426
     11          6           0        0.985676   -0.000087   -0.236548
     12         53           0       -1.749681   -0.000004    0.026309
     13          1           0        0.808053    0.932740   -0.761999
     14          1           0        0.955948    0.000807    0.847969
     15          1           0        0.808148   -0.933791   -0.760461
 ---------------------------------------------------------------------
 Rotational constants (GHZ):           7.7150505           0.5852178           0.5581917
 Leave Link  202 at Sat Dec 13 16:27:50 2025, MaxMem=   536870912 cpu:               0.0 elap:               0.1
 (Enter D:\G16W\l301.exe)
 Standard basis: VSTO-6G (5D, 7F)
 Ernie: Thresh=  0.10000D-02 Tol=  0.10000D-05 Strict=F.
 EHB=         0.000000000 Number of Hydrogen Bonds=     0
  NNHCO=     0 NNPyr=     0 NCTC=     0               EPep=         0.000000000
    EC=        93.523435777  ECS=         2.161939903   EG=         0.390626773
   EHC=         0.000416937  EAt=       -31.688835444  AtH=         1.868030760
 EPDDG=         0.000000000  ECC=        96.076419391 EAtT=        33.556866204
  EHyb=         0.000000000
 There are    36 symmetry adapted cartesian basis functions of A   symmetry.
 There are    35 symmetry adapted basis functions of A   symmetry.
    35 basis functions,   216 primitive gaussians,    36 cartesian basis functions
    17 alpha electrons       17 beta electrons
       nuclear repulsion energy       129.6332855947 Hartrees.
 IExCor=    0 DFT=F Ex=HF Corr=None ExCW=0 ScaHFX=  1.000000
 ScaDFX=  1.000000  1.000000  1.000000  1.000000 ScalE2=  1.000000  1.000000
 IRadAn=      5 IRanWt=     -1 IRanGd=            0 ICorTp=0 IEmpDi=251
 Integral buffers will be    131072 words long.
 Regular integral format.
 Two-electron integral symmetry is turned off.
 R6Disp:  PM7 Dispersion energy=       -0.0020254260 Hartrees.
 Nuclear repulsion after empirical dispersion term =      129.6312601688 Hartrees.
 Leave Link  301 at Sat Dec 13 16:27:50 2025, MaxMem=   536870912 cpu:               0.0 elap:               0.1
 (Enter D:\G16W\l302.exe)
 Do NDO integrals.
 NPDir=0 NMtPBC=     1 NCelOv=     1 NCel=       1 NClECP=     1 NCelD=      1
         NCelK=      1 NCelE2=     1 NClLst=     1 CellRange=     0.0.
 One-electron integrals computed using PRISM.
 NBasis=    35 RedAO= F EigKep=  0.00D+00  NBF=    35
 NBsUse=    35 1.00D-04 EigRej=  0.00D+00 NBFU=    35
 Leave Link  302 at Sat Dec 13 16:27:50 2025, MaxMem=   536870912 cpu:               0.0 elap:               0.2
 (Enter D:\G16W\l303.exe)
 DipDrv:  MaxL=1.
 Leave Link  303 at Sat Dec 13 16:27:50 2025, MaxMem=   536870912 cpu:               0.0 elap:               0.1
 (Enter D:\G16W\l401.exe)
 Nonelectrostatic core Hamiltonian diagonalized for initial guess.
 JPrj=0 DoOrth=F DoCkMO=F.
 Leave Link  401 at Sat Dec 13 16:27:51 2025, MaxMem=   536870912 cpu:               1.0 elap:               0.1
 (Enter D:\G16W\l502.exe)
 Keep J ints in memory in canonical form, NReq=1851636.
 FoFCou: FMM=F IPFlag=           0 FMFlag=           0 FMFlg1=           0
         NFxFlg=           0 DoJE=F BraDBF=F KetDBF=F FulRan=T
         wScrn=  0.000000 ICntrl=       600 IOpCl=  2 I1Cent=           0 NGrid=           0
         NMat0=    1 NMatS0=     95 NMatT0=    0 NMatD0=    1 NMtDS0=    0 NMtDT0=    0
 Symmetry not used in FoFCou.
 Two-electron integral symmetry not used.
 Closed shell SCF:
 Using DIIS extrapolation, IDIIS=  1040.
 Overlap will be assumed to be unity.
 NGot=   536870912 LenX=   536803821 LenY=   536802084
 Requested convergence on RMS density matrix=1.00D-08 within 128 cycles.
 Requested convergence on MAX density matrix=1.00D-06.
 Requested convergence on             energy=1.00D-06.
 No special actions if energy rises.

 Cycle   1  Pass 1  IDiag  1:
 E= 0.558095059336750    
 DIIS: error= 4.86D-02 at cycle   1 NSaved=   1.
 NSaved= 1 IEnMin= 1 EnMin= 0.558095059336750     IErMin= 1 ErrMin= 4.86D-02
 ErrMax= 4.86D-02  0.00D+00 EMaxC= 1.00D-01 BMatC= 8.96D-02 BMatP= 8.96D-02
 IDIUse=3 WtCom= 5.14D-01 WtEn= 4.86D-01
 Coeff-Com:  0.100D+01
 Coeff-En:   0.100D+01
 Coeff:      0.100D+01
 GapD=    2.000 DampG=2.000 DampE=0.500 DampFc=1.0000 IDamp=-1.
 RMSDP=1.91D-02 MaxDP=1.74D-01              OVMax= 0.00D+00

 Cycle   2  Pass 1  IDiag  1:
 E= 0.162408847033021     Delta-E=       -0.395686212304 Rises=F Damp=F
 DIIS: error= 2.10D-02 at cycle   2 NSaved=   2.
 NSaved= 2 IEnMin= 2 EnMin= 0.162408847033021     IErMin= 2 ErrMin= 2.10D-02
 ErrMax= 2.10D-02  0.00D+00 EMaxC= 1.00D-01 BMatC= 1.95D-02 BMatP= 8.96D-02
 IDIUse=3 WtCom= 7.90D-01 WtEn= 2.10D-01
 Coeff-Com: -0.599D+00 0.160D+01
 Coeff-En:   0.000D+00 0.100D+01
 Coeff:     -0.473D+00 0.147D+01
 RMSDP=1.31D-02 MaxDP=1.25D-01 DE=-3.96D-01 OVMax= 0.00D+00

 Cycle   3  Pass 1  IDiag  1:
 E= 0.516435433886784E-01 Delta-E=       -0.110765303644 Rises=F Damp=F
 DIIS: error= 6.39D-03 at cycle   3 NSaved=   3.
 NSaved= 3 IEnMin= 3 EnMin= 0.516435433886784E-01 IErMin= 3 ErrMin= 6.39D-03
 ErrMax= 6.39D-03  0.00D+00 EMaxC= 1.00D-01 BMatC= 1.89D-03 BMatP= 1.95D-02
 IDIUse=3 WtCom= 9.36D-01 WtEn= 6.39D-02
 Coeff-Com:  0.951D-01-0.545D+00 0.145D+01
 Coeff-En:   0.000D+00 0.000D+00 0.100D+01
 Coeff:      0.890D-01-0.510D+00 0.142D+01
 RMSDP=4.92D-03 MaxDP=4.39D-02 DE=-1.11D-01 OVMax= 0.00D+00

 Cycle   4  Pass 1  IDiag  3:
 E= 0.400206673292587E-01 Delta-E=       -0.011622876059 Rises=F Damp=F
 DIIS: error= 1.53D-03 at cycle   4 NSaved=   4.
 NSaved= 4 IEnMin= 4 EnMin= 0.400206673292587E-01 IErMin= 4 ErrMin= 1.53D-03
 ErrMax= 1.53D-03  0.00D+00 EMaxC= 1.00D-01 BMatC= 1.33D-04 BMatP= 1.89D-03
 IDIUse=3 WtCom= 9.85D-01 WtEn= 1.53D-02
 Coeff-Com:  0.445D-01-0.936D-01-0.152D+00 0.120D+01
 Coeff-En:   0.000D+00 0.000D+00 0.000D+00 0.100D+01
 Coeff:      0.438D-01-0.921D-01-0.150D+00 0.120D+01
 Gap=     0.256 Goal=   None    Shift=    0.000
 RMSDP=1.23D-03 MaxDP=1.15D-02 DE=-1.16D-02 OVMax= 1.82D-02

 Cycle   5  Pass 1  IDiag  3:
 E= 0.392712370039021E-01 Delta-E=       -0.000749430325 Rises=F Damp=F
 DIIS: error= 4.41D-04 at cycle   5 NSaved=   5.
 NSaved= 5 IEnMin= 5 EnMin= 0.392712370039021E-01 IErMin= 5 ErrMin= 4.41D-04
 ErrMax= 4.41D-04  0.00D+00 EMaxC= 1.00D-01 BMatC= 1.22D-05 BMatP= 1.33D-04
 IDIUse=3 WtCom= 9.96D-01 WtEn= 4.41D-03
 Coeff-Com: -0.189D-01 0.554D-01-0.182D-01-0.525D+00 0.151D+01
 Coeff-En:   0.000D+00 0.000D+00 0.000D+00 0.000D+00 0.100D+01
 Coeff:     -0.188D-01 0.552D-01-0.181D-01-0.522D+00 0.150D+01
 Gap=     0.254 Goal=   None    Shift=    0.000
 RMSDP=4.22D-04 MaxDP=3.11D-03 DE=-7.49D-04 OVMax= 3.61D-03

 Cycle   6  Pass 1  IDiag  3:
 E= 0.391957817547564E-01 Delta-E=       -0.000075455249 Rises=F Damp=F
 DIIS: error= 7.53D-05 at cycle   6 NSaved=   6.
 NSaved= 6 IEnMin= 6 EnMin= 0.391957817547564E-01 IErMin= 6 ErrMin= 7.53D-05
 ErrMax= 7.53D-05  0.00D+00 EMaxC= 1.00D-01 BMatC= 3.63D-07 BMatP= 1.22D-05
 IDIUse=1 WtCom= 1.00D+00 WtEn= 0.00D+00
 Coeff-Com:  0.217D-02-0.576D-02 0.201D-02 0.885D-01-0.393D+00 0.131D+01
 Coeff:      0.217D-02-0.576D-02 0.201D-02 0.885D-01-0.393D+00 0.131D+01
 Gap=     0.254 Goal=   None    Shift=    0.000
 RMSDP=6.86D-05 MaxDP=6.01D-04 DE=-7.55D-05 OVMax= 5.56D-04

 Cycle   7  Pass 1  IDiag  3:
 E= 0.391936437963807E-01 Delta-E=       -0.000002137958 Rises=F Damp=F
 DIIS: error= 1.74D-05 at cycle   7 NSaved=   7.
 NSaved= 7 IEnMin= 7 EnMin= 0.391936437963807E-01 IErMin= 7 ErrMin= 1.74D-05
 ErrMax= 1.74D-05  0.00D+00 EMaxC= 1.00D-01 BMatC= 1.59D-08 BMatP= 3.63D-07
 IDIUse=1 WtCom= 1.00D+00 WtEn= 0.00D+00
 Coeff-Com: -0.117D-03 0.262D-03-0.458D-03-0.202D-01 0.117D+00-0.532D+00
 Coeff-Com:  0.144D+01
 Coeff:     -0.117D-03 0.262D-03-0.458D-03-0.202D-01 0.117D+00-0.532D+00
 Coeff:      0.144D+01
 Gap=     0.254 Goal=   None    Shift=    0.000
 RMSDP=1.41D-05 MaxDP=1.11D-04 DE=-2.14D-06 OVMax= 1.99D-04

 Cycle   8  Pass 1  IDiag  3:
 E= 0.391935475158220E-01 Delta-E=       -0.000000096281 Rises=F Damp=F
 DIIS: error= 5.57D-06 at cycle   8 NSaved=   8.
 NSaved= 8 IEnMin= 8 EnMin= 0.391935475158220E-01 IErMin= 8 ErrMin= 5.57D-06
 ErrMax= 5.57D-06  0.00D+00 EMaxC= 1.00D-01 BMatC= 1.01D-09 BMatP= 1.59D-08
 IDIUse=1 WtCom= 1.00D+00 WtEn= 0.00D+00
 Coeff-Com: -0.630D-04 0.288D-03-0.169D-03 0.328D-02-0.246D-01 0.146D+00
 Coeff-Com: -0.606D+00 0.148D+01
 Coeff:     -0.630D-04 0.288D-03-0.169D-03 0.328D-02-0.246D-01 0.146D+00
 Coeff:     -0.606D+00 0.148D+01
 Gap=     0.254 Goal=   None    Shift=    0.000
 RMSDP=4.52D-06 MaxDP=5.23D-05 DE=-9.63D-08 OVMax= 8.32D-05

 Cycle   9  Pass 1  IDiag  3:
 E= 0.391935403329171E-01 Delta-E=       -0.000000007183 Rises=F Damp=F
 DIIS: error= 8.13D-07 at cycle   9 NSaved=   9.
 NSaved= 9 IEnMin= 9 EnMin= 0.391935403329171E-01 IErMin= 9 ErrMin= 8.13D-07
 ErrMax= 8.13D-07  0.00D+00 EMaxC= 1.00D-01 BMatC= 3.80D-11 BMatP= 1.01D-09
 IDIUse=1 WtCom= 1.00D+00 WtEn= 0.00D+00
 Coeff-Com:  0.257D-04-0.875D-04 0.802D-05 0.125D-03 0.152D-02-0.173D-01
 Coeff-Com:  0.107D+00-0.427D+00 0.134D+01
 Coeff:      0.257D-04-0.875D-04 0.802D-05 0.125D-03 0.152D-02-0.173D-01
 Coeff:      0.107D+00-0.427D+00 0.134D+01
 Gap=     0.254 Goal=   None    Shift=    0.000
 RMSDP=8.39D-07 MaxDP=9.66D-06 DE=-7.18D-09 OVMax= 1.44D-05

 Cycle  10  Pass 1  IDiag  3:
 E= 0.391935400780881E-01 Delta-E=       -0.000000000255 Rises=F Damp=F
 DIIS: error= 1.47D-07 at cycle  10 NSaved=  10.
 NSaved=10 IEnMin=10 EnMin= 0.391935400780881E-01 IErMin=10 ErrMin= 1.47D-07
 ErrMax= 1.47D-07  0.00D+00 EMaxC= 1.00D-01 BMatC= 1.57D-12 BMatP= 3.80D-11
 IDIUse=1 WtCom= 1.00D+00 WtEn= 0.00D+00
 Coeff-Com: -0.140D-05 0.520D-05 0.767D-05-0.164D-03 0.623D-03-0.166D-02
 Coeff-Com: -0.214D-02 0.461D-01-0.344D+00 0.130D+01
 Coeff:     -0.140D-05 0.520D-05 0.767D-05-0.164D-03 0.623D-03-0.166D-02
 Coeff:     -0.214D-02 0.461D-01-0.344D+00 0.130D+01
 Gap=     0.254 Goal=   None    Shift=    0.000
 RMSDP=1.53D-07 MaxDP=1.32D-06 DE=-2.55D-10 OVMax= 1.95D-06

 Cycle  11  Pass 1  IDiag  3:
 E= 0.391935400686805E-01 Delta-E=       -0.000000000009 Rises=F Damp=F
 DIIS: error= 3.63D-08 at cycle  11 NSaved=  11.
 NSaved=11 IEnMin=11 EnMin= 0.391935400686805E-01 IErMin=11 ErrMin= 3.63D-08
 ErrMax= 3.63D-08  0.00D+00 EMaxC= 1.00D-01 BMatC= 6.83D-14 BMatP= 1.57D-12
 IDIUse=1 WtCom= 1.00D+00 WtEn= 0.00D+00
 Coeff-Com: -0.607D-06 0.266D-05-0.506D-05 0.497D-04-0.260D-03 0.129D-02
 Coeff-Com: -0.436D-02 0.708D-02 0.288D-01-0.321D+00 0.129D+01
 Coeff:     -0.607D-06 0.266D-05-0.506D-05 0.497D-04-0.260D-03 0.129D-02
 Coeff:     -0.436D-02 0.708D-02 0.288D-01-0.321D+00 0.129D+01
 Gap=     0.254 Goal=   None    Shift=    0.000
 RMSDP=3.33D-08 MaxDP=4.18D-07 DE=-9.41D-12 OVMax= 4.86D-07

 Cycle  12  Pass 1  IDiag  3:
 E= 0.391935400676289E-01 Delta-E=       -0.000000000001 Rises=F Damp=F
 DIIS: error= 1.58D-08 at cycle  12 NSaved=  12.
 NSaved=12 IEnMin=12 EnMin= 0.391935400676289E-01 IErMin=12 ErrMin= 1.58D-08
 ErrMax= 1.58D-08  0.00D+00 EMaxC= 1.00D-01 BMatC= 4.56D-15 BMatP= 6.83D-14
 IDIUse=1 WtCom= 1.00D+00 WtEn= 0.00D+00
 Coeff-Com:  0.169D-06-0.655D-06 0.608D-06-0.542D-05 0.370D-04-0.225D-03
 Coeff-Com:  0.969D-03-0.244D-02 0.142D-03 0.579D-01-0.431D+00 0.137D+01
 Coeff:      0.169D-06-0.655D-06 0.608D-06-0.542D-05 0.370D-04-0.225D-03
 Coeff:      0.969D-03-0.244D-02 0.142D-03 0.579D-01-0.431D+00 0.137D+01
 Gap=     0.254 Goal=   None    Shift=    0.000
 RMSDP=1.17D-08 MaxDP=1.89D-07 DE=-1.05D-12 OVMax= 2.30D-07

 Cycle  13  Pass 1  IDiag  3:
 E= 0.391935400687657E-01 Delta-E=        0.000000000001 Rises=F Damp=F
 DIIS: error= 6.54D-09 at cycle  13 NSaved=  13.
 NSaved=13 IEnMin=12 EnMin= 0.391935400676289E-01 IErMin=13 ErrMin= 6.54D-09
 ErrMax= 6.54D-09  0.00D+00 EMaxC= 1.00D-01 BMatC= 4.91D-16 BMatP= 4.56D-15
 IDIUse=1 WtCom= 1.00D+00 WtEn= 0.00D+00
 Coeff-Com: -0.492D-07 0.163D-06 0.262D-06-0.187D-05 0.124D-05 0.283D-04
 Coeff-Com: -0.271D-03 0.128D-02-0.562D-02 0.933D-02 0.732D-01-0.596D+00
 Coeff-Com:  0.152D+01
 Coeff:     -0.492D-07 0.163D-06 0.262D-06-0.187D-05 0.124D-05 0.283D-04
 Coeff:     -0.271D-03 0.128D-02-0.562D-02 0.933D-02 0.732D-01-0.596D+00
 Coeff:      0.152D+01
 Gap=     0.254 Goal=   None    Shift=    0.000
 RMSDP=5.36D-09 MaxDP=9.33D-08 DE= 1.14D-12 OVMax= 1.14D-07

 Cycle  14  Pass 2  IDiag  1:
 SCF Done:  E(RPM7) =  0.391935400688E-01 A.U. after   14 cycles
            NFock= 13  Conv=0.54D-08     -V/T= 1.0007
 KE=-5.366348461560D+01 PE=-1.834506553149D+02 EE= 1.075220733019D+02
 Leave Link  502 at Sat Dec 13 16:27:51 2025, MaxMem=   536870912 cpu:               0.0 elap:               0.7
 (Enter D:\G16W\l801.exe)
 Range of M.O.s used for correlation:     1    35
 NBasis=    35 NAE=    17 NBE=    17 NFC=     0 NFV=     0
 NROrb=     35 NOA=    17 NOB=    17 NVA=    18 NVB=    18
 Leave Link  801 at Sat Dec 13 16:27:51 2025, MaxMem=   536870912 cpu:               0.0 elap:               0.1
 (Enter D:\G16W\l1101.exe)
 Using compressed storage, NAtomX=    15.
 Will process     16 centers per pass.
 R6Disp: Adding PM7 dispersion energy 1st derivatives to the gradient.
 Leave Link 1101 at Sat Dec 13 16:27:52 2025, MaxMem=   536870912 cpu:               1.0 elap:               0.2
 (Enter D:\G16W\l1102.exe)
 Symmetrizing basis deriv contribution to polar:
 IMax=3 JMax=2 DiffMx= 0.00D+00
 Leave Link 1102 at Sat Dec 13 16:27:52 2025, MaxMem=   536870912 cpu:               0.0 elap:               0.1
 (Enter D:\G16W\l1110.exe)
 Forming Gx(P) for the SCF density, NAtomX=    15.
 Integral derivatives from FoFJK, PRISM(SPDF).
 Do as many integral derivatives as possible in FoFJK.
 G2DrvN: MDV=     536810790.
 G2DrvN: will do    16 centers at a time, making    1 passes.
 Calling FoFCou, ICntrl=  3107 FMM=F I1Cent=   0 AccDes= 0.00D+00.
 FoFJK:  IHMeth=43 ICntrl=    3107 DoSepK=F KAlg= 0 I1Cent=           0 FoldK=F
 IRaf=         0 NMat=       1 IRICut=       1 DoRegI=T DoRafI=F ISym2E= 0 IDoP0=3 IntGTp=3.
 FoFCou: FMM=F IPFlag=           0 FMFlag=      100000 FMFlg1=           0
         NFxFlg=           0 DoJE=F BraDBF=F KetDBF=F FulRan=T
         wScrn=  0.000000 ICntrl=      3107 IOpCl=  0 I1Cent=           0 NGrid=           0
         NMat0=    1 NMatS0=      1 NMatT0=    0 NMatD0=    1 NMtDS0=    0 NMtDT0=    0
 Symmetry not used in FoFCou.
 End of G2Drv F.D. properties file   721 does not exist.
 End of G2Drv F.D. properties file   722 does not exist.
 End of G2Drv F.D. properties file   788 does not exist.
 Leave Link 1110 at Sat Dec 13 16:27:52 2025, MaxMem=   536870912 cpu:               0.0 elap:               0.1
 (Enter D:\G16W\l1002.exe)
 Minotr:  Closed shell wavefunction.
          IDoAtm=111111111111111
          Direct CPHF calculation.
          Differentiating once with respect to electric field.
                with respect to dipole field.
          Differentiating once with respect to nuclear coordinates.
          Electric field/nuclear overlap derivatives assumed to be zero.
          Requested convergence is 1.0D-08 RMS, and 1.0D-07 maximum.
          NewPWx=T KeepS1=F KeepF1=F KeepIn=T MapXYZ=F SortEE=F KeepMc=T.
 Keep J ints in memory in canonical form, NReq=1853098.
 FoFCou: FMM=F IPFlag=           0 FMFlag=           0 FMFlg1=           0
         NFxFlg=           0 DoJE=F BraDBF=F KetDBF=F FulRan=T
         wScrn=  0.000000 ICntrl=       600 IOpCl=  2 I1Cent=           0 NGrid=           0
         NMat0=    1 NMatS0=     95 NMatT0=    0 NMatD0=    1 NMtDS0=    0 NMtDT0=    0
 Symmetry not used in FoFCou.
 Two-electron integral symmetry not used.
          MDV=     536870912 using IRadAn=       1.
          Solving linear equations separately, MaxMat=       0.
          There are    48 degrees of freedom in the 1st order CPHF.  IDoFFX=5 NUNeed=    48.
 LinEq1:  Iter=  0 NonCon=    48 RMS=4.85D-01 Max=7.92D+00 NDo=    48
 AX will form    48 AO Fock derivatives at one time.
 LinEq1:  Iter=  1 NonCon=    48 RMS=4.44D-02 Max=2.40D-01 NDo=    48
 LinEq1:  Iter=  2 NonCon=    48 RMS=6.79D-03 Max=3.96D-02 NDo=    48
 LinEq1:  Iter=  3 NonCon=    48 RMS=1.30D-03 Max=8.86D-03 NDo=    48
 LinEq1:  Iter=  4 NonCon=    48 RMS=2.08D-04 Max=9.70D-04 NDo=    48
 LinEq1:  Iter=  5 NonCon=    48 RMS=3.60D-05 Max=1.75D-04 NDo=    48
 LinEq1:  Iter=  6 NonCon=    48 RMS=4.46D-06 Max=2.52D-05 NDo=    48
 LinEq1:  Iter=  7 NonCon=    19 RMS=6.15D-07 Max=3.33D-06 NDo=    48
 LinEq1:  Iter=  8 NonCon=     3 RMS=9.01D-08 Max=5.01D-07 NDo=    48
 LinEq1:  Iter=  9 NonCon=     1 RMS=1.50D-08 Max=9.42D-08 NDo=    48
 LinEq1:  Iter= 10 NonCon=     0 RMS=2.33D-09 Max=1.05D-08 NDo=    48
 Linear equations converged to 1.000D-08 1.000D-07 after    10 iterations.
 FullF1:  Do perturbations      1 to       3.
 Isotropic polarizability for W=    0.000000       71.49 Bohr**3.
 End of Minotr F.D. properties file   721 does not exist.
 End of Minotr F.D. properties file   722 does not exist.
 End of Minotr F.D. properties file   788 does not exist.
 Leave Link 1002 at Sat Dec 13 16:27:52 2025, MaxMem=   536870912 cpu:               0.0 elap:               0.4
 (Enter D:\G16W\l601.exe)
 Copying SCF densities to generalized density rwf, IOpCl= 0 IROHF=0.

 **********************************************************************

            Population analysis using the SCF density.

 **********************************************************************

 Orbital symmetries:
       Occupied  (A) (A) (A) (A) (A) (A) (A) (A) (A) (A) (A) (A)
                 (A) (A) (A) (A) (A)
       Virtual   (A) (A) (A) (A) (A) (A) (A) (A) (A) (A) (A) (A)
                 (A) (A) (A) (A) (A) (A)
 The electronic state is 1-A.
 Alpha  occ. eigenvalues --   -1.39741  -0.97444  -0.94837  -0.91355  -0.72068
 Alpha  occ. eigenvalues --   -0.70008  -0.65239  -0.63389  -0.57127  -0.55967
 Alpha  occ. eigenvalues --   -0.55088  -0.54467  -0.53946  -0.48418  -0.28255
 Alpha  occ. eigenvalues --   -0.28076  -0.28075
 Alpha virt. eigenvalues --   -0.02676   0.04076   0.08366   0.12049   0.13471
 Alpha virt. eigenvalues --    0.13519   0.13905   0.15279   0.16701   0.17120
 Alpha virt. eigenvalues --    0.17786   0.17839   0.18146   4.85465   4.85465
 Alpha virt. eigenvalues --    4.85575   4.86402   4.86403
          Condensed to atoms (all electrons):
               1          2          3          4          5          6
     1  C    4.315954   0.000000   0.000000   0.000000   0.000000   0.000000
     2  N    0.000000   5.311143   0.000000   0.000000   0.000000   0.000000
     3  C    0.000000   0.000000   4.315948   0.000000   0.000000   0.000000
     4  H    0.000000   0.000000   0.000000   0.847916   0.000000   0.000000
     5  H    0.000000   0.000000   0.000000   0.000000   0.825902   0.000000
     6  H    0.000000   0.000000   0.000000   0.000000   0.000000   0.823446
     7  H    0.000000   0.000000   0.000000   0.000000   0.000000   0.000000
     8  H    0.000000   0.000000   0.000000   0.000000   0.000000   0.000000
     9  H    0.000000   0.000000   0.000000   0.000000   0.000000   0.000000
    10  H    0.000000   0.000000   0.000000   0.000000   0.000000   0.000000
    11  C    0.000000   0.000000   0.000000   0.000000   0.000000   0.000000
    12  I    0.000000   0.000000   0.000000   0.000000   0.000000   0.000000
    13  H    0.000000   0.000000   0.000000   0.000000   0.000000   0.000000
    14  H    0.000000   0.000000   0.000000   0.000000   0.000000   0.000000
    15  H    0.000000   0.000000   0.000000   0.000000   0.000000   0.000000
               7          8          9         10         11         12
     1  C    0.000000   0.000000   0.000000   0.000000   0.000000   0.000000
     2  N    0.000000   0.000000   0.000000   0.000000   0.000000   0.000000
     3  C    0.000000   0.000000   0.000000   0.000000   0.000000   0.000000
     4  H    0.000000   0.000000   0.000000   0.000000   0.000000   0.000000
     5  H    0.000000   0.000000   0.000000   0.000000   0.000000   0.000000
     6  H    0.000000   0.000000   0.000000   0.000000   0.000000   0.000000
     7  H    0.724715   0.000000   0.000000   0.000000   0.000000   0.000000
     8  H    0.000000   0.825912   0.000000   0.000000   0.000000   0.000000
     9  H    0.000000   0.000000   0.847917   0.000000   0.000000   0.000000
    10  H    0.000000   0.000000   0.000000   0.823441   0.000000   0.000000
    11  C    0.000000   0.000000   0.000000   0.000000   4.045209   0.000000
    12  I    0.000000   0.000000   0.000000   0.000000   0.000000   7.759275
    13  H    0.000000   0.000000   0.000000   0.000000   0.000000   0.000000
    14  H    0.000000   0.000000   0.000000   0.000000   0.000000   0.000000
    15  H    0.000000   0.000000   0.000000   0.000000   0.000000   0.000000
              13         14         15
     1  C    0.000000   0.000000   0.000000
     2  N    0.000000   0.000000   0.000000
     3  C    0.000000   0.000000   0.000000
     4  H    0.000000   0.000000   0.000000
     5  H    0.000000   0.000000   0.000000
     6  H    0.000000   0.000000   0.000000
     7  H    0.000000   0.000000   0.000000
     8  H    0.000000   0.000000   0.000000
     9  H    0.000000   0.000000   0.000000
    10  H    0.000000   0.000000   0.000000
    11  C    0.000000   0.000000   0.000000
    12  I    0.000000   0.000000   0.000000
    13  H    0.845263   0.000000   0.000000
    14  H    0.000000   0.842702   0.000000
    15  H    0.000000   0.000000   0.845255
 Mulliken charges:
               1
     1  C   -0.315954
     2  N   -0.311143
     3  C   -0.315948
     4  H    0.152084
     5  H    0.174098
     6  H    0.176554
     7  H    0.275285
     8  H    0.174088
     9  H    0.152083
    10  H    0.176559
    11  C   -0.045209
    12  I   -0.759275
    13  H    0.154737
    14  H    0.157298
    15  H    0.154745
 Sum of Mulliken charges =   0.00000
 Mulliken charges with hydrogens summed into heavy atoms:
               1
     1  C    0.186781
     2  N   -0.035858
     3  C    0.186782
    11  C    0.421571
    12  I   -0.759275
 APT charges:
               1
     1  C   -0.544248
     2  N   -0.706825
     3  C   -0.544264
     4  H    0.182426
     5  H    0.206951
     6  H    0.211605
     7  H    0.162350
     8  H    0.206952
     9  H    0.182423
    10  H    0.211610
    11  C    1.521119
    12  I   -1.238826
    13  H    0.051224
    14  H    0.046243
    15  H    0.051251
 Sum of APT charges =  -0.00001
 APT charges with hydrogens summed into heavy atoms:
               1
     1  C    0.056734
     2  N   -0.544476
     3  C    0.056722
    11  C    1.669837
    12  I   -1.238826
 Charge=              0.0000 electrons
 Dipole moment (field-independent basis, Debye):
    X=             14.8957    Y=              0.0000    Z=             -0.8878  Tot=             14.9222
 N-N= 1.296312601688D+02 E-N=-1.834506552878D+02  KE=-5.366348461560D+01
  Exact polarizability: 155.444  -0.002  32.084  -6.820   0.000  26.943
 Approx polarizability:  87.016  -0.001  21.985  -5.041   0.000  19.924
 Leave Link  601 at Sat Dec 13 16:27:53 2025, MaxMem=   536870912 cpu:               0.0 elap:               0.1
 (Enter D:\G16W\l701.exe)
 ... and contract with generalized density number  0.
 Compute integral second derivatives.
 R6Disp: Adding PM7 dispersion energy 2nd derivatives to the Hessian.
 Leave Link  701 at Sat Dec 13 16:27:53 2025, MaxMem=   536870912 cpu:               0.0 elap:               0.2
 (Enter D:\G16W\l702.exe)
 L702 exits ... SP integral derivatives will be done elsewhere.
 Leave Link  702 at Sat Dec 13 16:27:53 2025, MaxMem=   536870912 cpu:               0.0 elap:               0.1
 (Enter D:\G16W\l703.exe)
 Integral derivatives from FoFJK, PRISM(SPDF).
 Compute integral second derivatives, UseDBF=F ICtDFT=           0.
 Calling FoFJK, ICntrl=    100127 FMM=F ISym2X=0 I1Cent= 0 IOpClX= 0 NMat=1 NMatS=1 NMatT=0.
 FoFJK:  IHMeth=43 ICntrl=  100127 DoSepK=F KAlg= 0 I1Cent=           0 FoldK=F
 IRaf=         0 NMat=       1 IRICut=       1 DoRegI=T DoRafI=F ISym2E= 0 IDoP0=3 IntGTp=3.
 FoFCou: FMM=F IPFlag=           0 FMFlag=      100000 FMFlg1=         800
         NFxFlg=           0 DoJE=F BraDBF=F KetDBF=F FulRan=T
         wScrn=  0.000000 ICntrl=    100127 IOpCl=  0 I1Cent=           0 NGrid=           0
         NMat0=    1 NMatS0=      1 NMatT0=    0 NMatD0=    1 NMtDS0=    0 NMtDT0=    0
 Symmetry not used in FoFCou.
 Leave Link  703 at Sat Dec 13 16:27:53 2025, MaxMem=   536870912 cpu:               0.0 elap:               0.1
 (Enter D:\G16W\l716.exe)
 Dipole        = 5.86043080D+00 1.37638878D-05-3.49287791D-01
 Polarizability= 1.55444153D+02-1.73846295D-03 3.20844206D+01
                -6.81966290D+00-5.98126017D-05 2.69428678D+01
 HyperPolar    = 7.36801153D+03-1.65253239D-01 6.60725222D+01
                -1.60037703D-02-4.54027211D+02 9.10431740D-03
                -2.51190453D+00 6.67574806D+01 1.44263122D-02
                -5.01088082D+00
 ***** Axes restored to original set *****
 -------------------------------------------------------------------
 Center     Atomic                   Forces (Hartrees/Bohr)
 Number     Number              X              Y              Z
 -------------------------------------------------------------------
      1        6          -0.000011651   -0.000016263   -0.000007333
      2        7          -0.010541871    0.000001344   -0.001029280
      3        6          -0.000016820    0.000014567   -0.000004469
      4        1           0.000006602   -0.000004212    0.000002503
      5        1           0.000001866   -0.000005295   -0.000000258
      6        1           0.000000040   -0.000003649   -0.000001274
      7        1          -0.000001005    0.000001834   -0.000001684
      8        1           0.000001267    0.000006462   -0.000001333
      9        1           0.000007328    0.000003877    0.000000207
     10        1           0.000001139    0.000002567    0.000001438
     11        6           0.010516668   -0.000004343    0.001028567
     12       53           0.000050119    0.000000122   -0.000004488
     13        1          -0.000009045   -0.000001737    0.000005471
     14        1          -0.000000936    0.000002266    0.000005258
     15        1          -0.000003699    0.000002460    0.000006676
 -------------------------------------------------------------------
 Cartesian Forces:  Max     0.010541871 RMS     0.002230360
 FormGI is forming the generalized inverse of G from B-inverse, IUseBI=4.
 Leave Link  716 at Sat Dec 13 16:27:53 2025, MaxMem=   536870912 cpu:               0.0 elap:               0.1
 (Enter D:\G16W\l103.exe)

 GradGradGradGradGradGradGradGradGradGradGradGradGradGradGradGradGradGrad
 Berny optimization.
 Red2BG is reusing G-inverse.
 Internal  Forces:  Max     0.010604368 RMS     0.001216432
 Search for a saddle point.
 Step number   1 out of a maximum of   86
 All quantities printed in internal units (Hartrees-Bohrs-Radians)
 Swapping is turned off.
 Second derivative matrix not updated -- analytic derivatives used.
 ITU=  0
     Eigenvalues ---   -0.04799   0.00062   0.00122   0.00135   0.01506
     Eigenvalues ---    0.01533   0.01777   0.02719   0.03341   0.03421
     Eigenvalues ---    0.03606   0.03820   0.03907   0.03956   0.04052
     Eigenvalues ---    0.04549   0.08191   0.08294   0.09982   0.11513
     Eigenvalues ---    0.11681   0.12501   0.14563   0.14978   0.15055
     Eigenvalues ---    0.15429   0.15823   0.22530   0.22736   0.25302
     Eigenvalues ---    0.25411   0.25441   0.25464   0.25662   0.26439
     Eigenvalues ---    0.27012   0.27737   0.41984   0.48956
 Eigenvectors required to have negative eigenvalues:
                          R7        R11       A20       A19       A21
   1                    0.71454  -0.53527  -0.23669  -0.23438  -0.23436
                          A22       A24       A23       R15       R17
   1                    0.09480   0.09476   0.09461  -0.04032  -0.04018
 RFO step:  Lambda0=1.162019542D-03 Lambda=-7.13501068D-04.
 Linear search not attempted -- option 19 set.
 Iteration  1 RMS(Cart)=  0.01383162 RMS(Int)=  0.00051393
 Iteration  2 RMS(Cart)=  0.00029043 RMS(Int)=  0.00042565
 Iteration  3 RMS(Cart)=  0.00000045 RMS(Int)=  0.00042565
 ITry= 1 IFail=0 DXMaxC= 9.25D-02 DCOld= 1.00D+10 DXMaxT= 3.00D-01 DXLimC= 3.00D+00 Rises=F
 Variable       Old X    -DE/DX   Delta X   Delta X   Delta X     New X
                                 (Linear)    (Quad)   (Total)
    R1        2.80814   0.00003   0.00000   0.00038   0.00038   2.80851
    R2        2.08155   0.00001   0.00000  -0.00065  -0.00065   2.08090
    R3        2.08964   0.00000   0.00000  -0.00108  -0.00108   2.08855
    R4        2.08923   0.00000   0.00000  -0.00099  -0.00099   2.08824
    R5        2.80814   0.00002   0.00000   0.00037   0.00037   2.80851
    R6        1.94661   0.00000   0.00000  -0.00065  -0.00065   1.94595
    R7        3.49862  -0.01060   0.00000   0.04290   0.04290   3.54152
    R8        2.08963   0.00000   0.00000  -0.00108  -0.00108   2.08855
    R9        2.08155   0.00001   0.00000  -0.00064  -0.00064   2.08090
   R10        2.08924   0.00000   0.00000  -0.00100  -0.00100   2.08824
   R11        5.19289  -0.00003   0.00000  -0.15644  -0.15679   5.03610
   R12        2.05087   0.00001   0.00000  -0.00141  -0.00136   2.04951
   R13        2.05021   0.00000   0.00000  -0.00141  -0.00134   2.04887
   R14        2.05086   0.00001   0.00000  -0.00140  -0.00136   2.04950
   R15        5.35611  -0.00001   0.00000  -0.07504  -0.07495   5.28117
   R16        5.34347  -0.00002   0.00000  -0.06868  -0.06860   5.27487
   R17        5.35612   0.00000   0.00000  -0.07504  -0.07495   5.28117
    A1        1.96825   0.00000   0.00000   0.00282   0.00282   1.97107
    A2        1.91940   0.00000   0.00000  -0.00207  -0.00207   1.91732
    A3        1.92997   0.00000   0.00000  -0.00250  -0.00250   1.92747
    A4        1.88706   0.00000   0.00000   0.00046   0.00046   1.88752
    A5        1.88307   0.00000   0.00000   0.00059   0.00059   1.88366
    A6        1.87298   0.00000   0.00000   0.00072   0.00071   1.87369
    A7        1.94531   0.00002   0.00000  -0.00370  -0.00374   1.94157
    A8        1.92760   0.00000   0.00000  -0.00428  -0.00430   1.92330
    A9        1.89668  -0.00001   0.00000   0.00578   0.00579   1.90246
   A10        1.92762   0.00000   0.00000  -0.00428  -0.00431   1.92331
   A11        1.89677  -0.00001   0.00000   0.00571   0.00571   1.90248
   A12        1.86767   0.00001   0.00000   0.00135   0.00137   1.86904
   A13        1.91939   0.00001   0.00000  -0.00206  -0.00206   1.91733
   A14        1.96824   0.00000   0.00000   0.00283   0.00283   1.97107
   A15        1.92996   0.00000   0.00000  -0.00250  -0.00251   1.92746
   A16        1.88704   0.00000   0.00000   0.00048   0.00048   1.88752
   A17        1.87298   0.00000   0.00000   0.00071   0.00071   1.87369
   A18        1.88311   0.00000   0.00000   0.00056   0.00056   1.88367
   A19        1.68685   0.00001   0.00000  -0.03657  -0.03692   1.64992
   A20        1.69557  -0.00003   0.00000  -0.03628  -0.03665   1.65892
   A21        1.68697   0.00000   0.00000  -0.03668  -0.03703   1.64994
   A22        2.07007   0.00001   0.00000   0.01469   0.01259   2.08267
   A23        2.07030   0.00000   0.00000   0.01476   0.01269   2.08299
   A24        2.07008   0.00001   0.00000   0.01468   0.01260   2.08268
   A25        0.67173   0.00000   0.00000   0.01195   0.01167   0.68340
   A26        0.67106   0.00000   0.00000   0.01235   0.01209   0.68315
   A27        0.67173   0.00000   0.00000   0.01195   0.01167   0.68340
   A28        3.14075   0.00002   0.00000  -0.00111  -0.00112   3.13963
   A29        3.14027   0.00002   0.00000  -0.00205  -0.00206   3.13820
    D1        1.04474   0.00001   0.00000  -0.00681  -0.00681   1.03793
    D2       -1.10490   0.00000   0.00000   0.00433   0.00433  -1.10058
    D3        3.13455   0.00000   0.00000   0.00171   0.00171   3.13626
    D4       -3.13075   0.00000   0.00000  -0.00579  -0.00578  -3.13654
    D5        1.00279   0.00000   0.00000   0.00536   0.00535   1.00814
    D6       -1.04095   0.00000   0.00000   0.00274   0.00274  -1.03821
    D7       -1.06535   0.00000   0.00000  -0.00773  -0.00772  -1.07306
    D8        3.06820   0.00000   0.00000   0.00342   0.00341   3.07161
    D9        1.02446   0.00000   0.00000   0.00080   0.00080   1.02526
   D10        3.13098   0.00000   0.00000   0.00574   0.00573   3.13671
   D11       -1.04455   0.00000   0.00000   0.00680   0.00680  -1.03776
   D12        1.06557   0.00000   0.00000   0.00768   0.00767   1.07324
   D13       -1.00257   0.00000   0.00000  -0.00540  -0.00539  -1.00797
   D14        1.10508   0.00000   0.00000  -0.00434  -0.00433   1.10075
   D15       -3.06798   0.00000   0.00000  -0.00346  -0.00345  -3.07144
   D16        1.04122   0.00000   0.00000  -0.00283  -0.00283   1.03840
   D17       -3.13430   0.00000   0.00000  -0.00177  -0.00176  -3.13607
   D18       -1.02418   0.00000   0.00000  -0.00089  -0.00089  -1.02507
   D19        1.03579  -0.00001   0.00000  -0.00179  -0.00181   1.03398
   D20       -1.05910  -0.00001   0.00000  -0.00162  -0.00162  -1.06072
   D21        3.12916  -0.00001   0.00000  -0.00141  -0.00141   3.12775
   D22       -3.12759   0.00001   0.00000   0.00064   0.00064  -3.12696
   D23        1.06070   0.00000   0.00000   0.00081   0.00083   1.06153
   D24       -1.03422   0.00001   0.00000   0.00102   0.00104  -1.03318
   D25       -1.04587   0.00000   0.00000  -0.00060  -0.00061  -1.04648
   D26       -3.14076   0.00000   0.00000  -0.00043  -0.00042  -3.14118
   D27        1.04750   0.00000   0.00000  -0.00022  -0.00021   1.04729
   D28       -0.55833   0.00000   0.00000  -0.00133  -0.00125  -0.55958
   D29        0.55843   0.00000   0.00000   0.00094   0.00099   0.55942
   D30       -0.55752   0.00000   0.00000  -0.00167  -0.00166  -0.55918
         Item               Value     Threshold  Converged?
 Maximum Force            0.010604     0.000450     NO 
 RMS     Force            0.001216     0.000300     NO 
 Maximum Displacement     0.092545     0.001800     NO 
 RMS     Displacement     0.013866     0.001200     NO 
 Predicted change in Energy= 2.292794D-04
 Lowest energy point so far.  Saving SCF results.
 GradGradGradGradGradGradGradGradGradGradGradGradGradGradGradGradGradGrad

 Leave Link  103 at Sat Dec 13 16:27:54 2025, MaxMem=   536870912 cpu:               1.0 elap:               0.2
 (Enter D:\G16W\l202.exe)
                          Input orientation:                          
 ---------------------------------------------------------------------
 Center     Atomic      Atomic             Coordinates (Angstroms)
 Number     Number       Type             X           Y           Z
 ---------------------------------------------------------------------
      1          6           0        3.366041   -1.226679   -0.222089
      2          7           0        2.817977   -0.000002    0.413272
      3          6           0        3.366185    1.226532   -0.222242
      4          1           0        4.463455   -1.289986   -0.156939
      5          1           0        2.940069   -2.123385    0.263673
      6          1           0        3.085904   -1.266017   -1.290316
      7          1           0        3.023711    0.000046    1.422265
      8          1           0        2.940462    2.123353    0.263524
      9          1           0        4.463620    1.289632   -0.157258
     10          1           0        3.085895    1.265852   -1.290429
     11          6           0        0.952716    0.000079    0.231581
     12         53           0       -1.700708    0.000173   -0.016421
     13          1           0        0.814875   -0.935806    0.762025
     14          1           0        0.962449   -0.000428   -0.852592
     15          1           0        0.815025    0.936475    0.761158
 ---------------------------------------------------------------------
                    Distance matrix (angstroms):
                    1          2          3          4          5
     1  C    0.000000
     2  N    1.486202   0.000000
     3  C    2.453211   1.486201   0.000000
     4  H    1.101167   2.167210   2.746111   0.000000
     5  H    1.105214   2.132145   3.411690   1.786665   0.000000
     6  H    1.105049   2.139344   2.726196   1.784030   1.780794
     7  H    2.079890   1.029754   2.079893   2.496183   2.420390
     8  H    3.411694   2.132150   1.105214   3.761274   4.246738
     9  H    2.746034   2.167210   1.101167   2.579618   3.761260
    10  H    2.726269   2.139337   1.105049   3.116854   3.731411
    11  C    2.744976   1.874089   2.744991   3.760386   2.908557
    12  I    5.217223   4.539070   5.217253   6.299299   5.111239
    13  H    2.749825   2.238254   3.486212   3.779163   2.484985
    14  H    2.771008   2.246196   2.771412   3.795252   3.108694
    15  H    3.486215   2.238265   2.749478   4.371621   3.758463
                    6          7          8          9         10
     6  H    0.000000
     7  H    2.994140   0.000000
     8  H    3.731408   2.420339   0.000000
     9  H    3.116611   2.496250   1.786662   0.000000
    10  H    2.531869   2.994134   1.780795   1.784032   0.000000
    11  C    2.910269   2.388880   2.908685   3.760398   2.910180
    12  I    5.112505   4.938618   5.111431   6.299325   5.112398
    13  H    3.078753   2.488110   3.758335   4.371613   3.770597
    14  H    2.510455   3.069816   3.109453   3.795517   2.510815
    15  H    3.770466   2.488423   2.484714   3.778949   3.078043
                   11         12         13         14         15
    11  C    0.000000
    12  I    2.664989   0.000000
    13  H    1.084552   2.794672   0.000000
    14  H    1.084216   2.791341   1.871816   0.000000
    15  H    1.084550   2.794675   1.872281   1.871820   0.000000
 Stoichiometry    C3H10IN
 Framework group  C1[X(C3H10IN)]
 Deg. of freedom    39
 Full point group                 C1      NOp   1
 RotChk:  IX=3 Diff= 3.72D-03
 Largest Abelian subgroup         C1      NOp   1
 Largest concise Abelian subgroup C1      NOp   1
                         Standard orientation:                         
 ---------------------------------------------------------------------
 Center     Atomic      Atomic             Coordinates (Angstroms)
 Number     Number       Type             X           Y           Z
 ---------------------------------------------------------------------
      1          6           0        3.340621    1.226613    0.218741
      2          7           0        2.790834   -0.000002   -0.415251
      3          6           0        3.340655   -1.226598    0.218746
      4          1           0        4.437862    1.289875    0.150712
      5          1           0        2.913414    2.123367   -0.265847
      6          1           0        3.063293    1.265900    1.287702
      7          1           0        2.993916    0.000001   -1.424781
      8          1           0        2.913617   -2.123371   -0.265953
      9          1           0        4.437913   -1.289743    0.150876
     10          1           0        3.063170   -1.265970    1.287665
     11          6           0        0.926057   -0.000010   -0.228660
     12         53           0       -1.726707   -0.000001    0.026312
     13          1           0        0.786864    0.935913   -0.758684
     14          1           0        0.938638    0.000431    0.855483
     15          1           0        0.786933   -0.936368   -0.757930
 ---------------------------------------------------------------------
 Rotational constants (GHZ):           7.7416988           0.5991492           0.5708504
 Leave Link  202 at Sat Dec 13 16:27:54 2025, MaxMem=   536870912 cpu:               0.0 elap:               0.1
 (Enter D:\G16W\l301.exe)
 Standard basis: VSTO-6G (5D, 7F)
 Ernie: Thresh=  0.10000D-02 Tol=  0.10000D-05 Strict=F.
 EHB=         0.000000000 Number of Hydrogen Bonds=     0
  NNHCO=     0 NNPyr=     0 NCTC=     0               EPep=         0.000000000
    EC=        93.732942315  ECS=         2.170975453   EG=         0.389947163
   EHC=         0.000419612  EAt=       -31.688835444  AtH=         1.868030760
 EPDDG=         0.000000000  ECC=        96.294284542 EAtT=        33.556866204
  EHyb=         0.000000000
 There are    36 symmetry adapted cartesian basis functions of A   symmetry.
 There are    35 symmetry adapted basis functions of A   symmetry.
    35 basis functions,   216 primitive gaussians,    36 cartesian basis functions
    17 alpha electrons       17 beta electrons
       nuclear repulsion energy       129.8511507459 Hartrees.
 IExCor=    0 DFT=F Ex=HF Corr=None ExCW=0 ScaHFX=  1.000000
 ScaDFX=  1.000000  1.000000  1.000000  1.000000 ScalE2=  1.000000  1.000000
 IRadAn=      5 IRanWt=     -1 IRanGd=            0 ICorTp=0 IEmpDi=251
 Integral buffers will be    131072 words long.
 Regular integral format.
 Two-electron integral symmetry is turned off.
 R6Disp:  PM7 Dispersion energy=       -0.0020577945 Hartrees.
 Nuclear repulsion after empirical dispersion term =      129.8490929514 Hartrees.
 Leave Link  301 at Sat Dec 13 16:27:54 2025, MaxMem=   536870912 cpu:               0.0 elap:               0.2
 (Enter D:\G16W\l302.exe)
 Do NDO integrals.
 NPDir=0 NMtPBC=     1 NCelOv=     1 NCel=       1 NClECP=     1 NCelD=      1
         NCelK=      1 NCelE2=     1 NClLst=     1 CellRange=     0.0.
 One-electron integrals computed using PRISM.
 NBasis=    35 RedAO= F EigKep=  0.00D+00  NBF=    35
 NBsUse=    35 1.00D-04 EigRej=  0.00D+00 NBFU=    35
 Leave Link  302 at Sat Dec 13 16:27:54 2025, MaxMem=   536870912 cpu:               0.0 elap:               0.2
 (Enter D:\G16W\l303.exe)
 DipDrv:  MaxL=1.
 Leave Link  303 at Sat Dec 13 16:27:54 2025, MaxMem=   536870912 cpu:               0.0 elap:               0.1
 (Enter D:\G16W\l401.exe)
 Initial guess from the checkpoint file:  ".\Gau-10464.chk"
 B after Tr=     0.000000    0.000000    0.000000
         Rot=    1.000000   -0.000025   -0.000376    0.000006 Ang=  -0.04 deg.
 Guess basis will be translated and rotated to current coordinates.
 JPrj=0 DoOrth=T DoCkMO=T.
 Leave Link  401 at Sat Dec 13 16:27:54 2025, MaxMem=   536870912 cpu:               0.0 elap:               0.2
 (Enter D:\G16W\l502.exe)
 Keep J ints in memory in canonical form, NReq=1851636.
 FoFCou: FMM=F IPFlag=           0 FMFlag=           0 FMFlg1=           0
         NFxFlg=           0 DoJE=F BraDBF=F KetDBF=F FulRan=T
         wScrn=  0.000000 ICntrl=       600 IOpCl=  2 I1Cent=           0 NGrid=           0
         NMat0=    1 NMatS0=     95 NMatT0=    0 NMatD0=    1 NMtDS0=    0 NMtDT0=    0
 Symmetry not used in FoFCou.
 Two-electron integral symmetry not used.
 Closed shell SCF:
 Using DIIS extrapolation, IDIIS=  1040.
 Overlap will be assumed to be unity.
 NGot=   536870912 LenX=   536803821 LenY=   536802084
 Requested convergence on RMS density matrix=1.00D-08 within 128 cycles.
 Requested convergence on MAX density matrix=1.00D-06.
 Requested convergence on             energy=1.00D-06.
 No special actions if energy rises.

 Cycle   1  Pass 1  IDiag  1:
 E= 0.411338373636738E-01
 DIIS: error= 4.47D-03 at cycle   1 NSaved=   1.
 NSaved= 1 IEnMin= 1 EnMin= 0.411338373636738E-01 IErMin= 1 ErrMin= 4.47D-03
 ErrMax= 4.47D-03  0.00D+00 EMaxC= 1.00D-01 BMatC= 4.83D-04 BMatP= 4.83D-04
 IDIUse=3 WtCom= 9.55D-01 WtEn= 4.47D-02
 Coeff-Com:  0.100D+01
 Coeff-En:   0.100D+01
 Coeff:      0.100D+01
 GapD=    2.000 DampG=2.000 DampE=1.000 DampFc=2.0000 IDamp=-1.
 RMSDP=1.28D-03 MaxDP=1.59D-02              OVMax= 0.00D+00

 Cycle   2  Pass 1  IDiag  3:
 E= 0.397505139141856E-01 Delta-E=       -0.001383323449 Rises=F Damp=F
 DIIS: error= 1.72D-03 at cycle   2 NSaved=   2.
 NSaved= 2 IEnMin= 2 EnMin= 0.397505139141856E-01 IErMin= 2 ErrMin= 1.72D-03
 ErrMax= 1.72D-03  0.00D+00 EMaxC= 1.00D-01 BMatC= 5.13D-05 BMatP= 4.83D-04
 IDIUse=3 WtCom= 9.83D-01 WtEn= 1.72D-02
 Coeff-Com: -0.258D+00 0.126D+01
 Coeff-En:   0.000D+00 0.100D+01
 Coeff:     -0.254D+00 0.125D+01
 Gap=     0.264 Goal=   None    Shift=    0.000
 RMSDP=7.28D-04 MaxDP=9.56D-03 DE=-1.38D-03 OVMax= 1.28D-02

 Cycle   3  Pass 1  IDiag  3:
 E= 0.394561104662614E-01 Delta-E=       -0.000294403448 Rises=F Damp=F
 DIIS: error= 4.40D-04 at cycle   3 NSaved=   3.
 NSaved= 3 IEnMin= 3 EnMin= 0.394561104662614E-01 IErMin= 3 ErrMin= 4.40D-04
 ErrMax= 4.40D-04  0.00D+00 EMaxC= 1.00D-01 BMatC= 5.54D-06 BMatP= 5.13D-05
 IDIUse=3 WtCom= 9.96D-01 WtEn= 4.40D-03
 Coeff-Com:  0.153D-01-0.395D+00 0.138D+01
 Coeff-En:   0.000D+00 0.000D+00 0.100D+01
 Coeff:      0.152D-01-0.393D+00 0.138D+01
 Gap=     0.267 Goal=   None    Shift=    0.000
 RMSDP=3.45D-04 MaxDP=4.68D-03 DE=-2.94D-04 OVMax= 6.33D-03

 Cycle   4  Pass 1  IDiag  3:
 E= 0.394112204234318E-01 Delta-E=       -0.000044890043 Rises=F Damp=F
 DIIS: error= 1.34D-04 at cycle   4 NSaved=   4.
 NSaved= 4 IEnMin= 4 EnMin= 0.394112204234318E-01 IErMin= 4 ErrMin= 1.34D-04
 ErrMax= 1.34D-04  0.00D+00 EMaxC= 1.00D-01 BMatC= 3.94D-07 BMatP= 5.54D-06
 IDIUse=3 WtCom= 9.99D-01 WtEn= 1.34D-03
 Coeff-Com:  0.473D-02 0.526D-01-0.451D+00 0.139D+01
 Coeff-En:   0.000D+00 0.000D+00 0.000D+00 0.100D+01
 Coeff:      0.472D-02 0.525D-01-0.451D+00 0.139D+01
 Gap=     0.267 Goal=   None    Shift=    0.000
 RMSDP=1.05D-04 MaxDP=1.47D-03 DE=-4.49D-05 OVMax= 2.05D-03

 Cycle   5  Pass 1  IDiag  3:
 E= 0.394078812786063E-01 Delta-E=       -0.000003339145 Rises=F Damp=F
 DIIS: error= 2.63D-05 at cycle   5 NSaved=   5.
 NSaved= 5 IEnMin= 5 EnMin= 0.394078812786063E-01 IErMin= 5 ErrMin= 2.63D-05
 ErrMax= 2.63D-05  0.00D+00 EMaxC= 1.00D-01 BMatC= 2.35D-08 BMatP= 3.94D-07
 IDIUse=1 WtCom= 1.00D+00 WtEn= 0.00D+00
 Coeff-Com: -0.356D-02 0.308D-01-0.222D-01-0.307D+00 0.130D+01
 Coeff:     -0.356D-02 0.308D-01-0.222D-01-0.307D+00 0.130D+01
 Gap=     0.267 Goal=   None    Shift=    0.000
 RMSDP=2.00D-05 MaxDP=2.67D-04 DE=-3.34D-06 OVMax= 3.79D-04

 Cycle   6  Pass 1  IDiag  3:
 E= 0.394077395559123E-01 Delta-E=       -0.000000141723 Rises=F Damp=F
 DIIS: error= 4.77D-06 at cycle   6 NSaved=   6.
 NSaved= 6 IEnMin= 6 EnMin= 0.394077395559123E-01 IErMin= 6 ErrMin= 4.77D-06
 ErrMax= 4.77D-06  0.00D+00 EMaxC= 1.00D-01 BMatC= 1.27D-09 BMatP= 2.35D-08
 IDIUse=1 WtCom= 1.00D+00 WtEn= 0.00D+00
 Coeff-Com:  0.130D-02-0.178D-01 0.380D-01 0.452D-01-0.522D+00 0.145D+01
 Coeff:      0.130D-02-0.178D-01 0.380D-01 0.452D-01-0.522D+00 0.145D+01
 Gap=     0.267 Goal=   None    Shift=    0.000
 RMSDP=4.14D-06 MaxDP=4.43D-05 DE=-1.42D-07 OVMax= 6.40D-05

 Cycle   7  Pass 1  IDiag  3:
 E= 0.394077326378977E-01 Delta-E=       -0.000000006918 Rises=F Damp=F
 DIIS: error= 1.34D-06 at cycle   7 NSaved=   7.
 NSaved= 7 IEnMin= 7 EnMin= 0.394077326378977E-01 IErMin= 7 ErrMin= 1.34D-06
 ErrMax= 1.34D-06  0.00D+00 EMaxC= 1.00D-01 BMatC= 8.02D-11 BMatP= 1.27D-09
 IDIUse=1 WtCom= 1.00D+00 WtEn= 0.00D+00
 Coeff-Com: -0.365D-03 0.627D-02-0.154D-01-0.323D-02 0.167D+00-0.673D+00
 Coeff-Com:  0.152D+01
 Coeff:     -0.365D-03 0.627D-02-0.154D-01-0.323D-02 0.167D+00-0.673D+00
 Coeff:      0.152D+01
 Gap=     0.267 Goal=   None    Shift=    0.000
 RMSDP=9.90D-07 MaxDP=7.83D-06 DE=-6.92D-09 OVMax= 9.60D-06

 Cycle   8  Pass 1  IDiag  3:
 E= 0.394077321508632E-01 Delta-E=       -0.000000000487 Rises=F Damp=F
 DIIS: error= 2.84D-07 at cycle   8 NSaved=   8.
 NSaved= 8 IEnMin= 8 EnMin= 0.394077321508632E-01 IErMin= 8 ErrMin= 2.84D-07
 ErrMax= 2.84D-07  0.00D+00 EMaxC= 1.00D-01 BMatC= 4.41D-12 BMatP= 8.02D-11
 IDIUse=1 WtCom= 1.00D+00 WtEn= 0.00D+00
 Coeff-Com:  0.849D-04-0.143D-02 0.326D-02 0.153D-02-0.410D-01 0.171D+00
 Coeff-Com: -0.554D+00 0.142D+01
 Coeff:      0.849D-04-0.143D-02 0.326D-02 0.153D-02-0.410D-01 0.171D+00
 Coeff:     -0.554D+00 0.142D+01
 Gap=     0.267 Goal=   None    Shift=    0.000
 RMSDP=2.43D-07 MaxDP=1.89D-06 DE=-4.87D-10 OVMax= 2.24D-06

 Cycle   9  Pass 1  IDiag  3:
 E= 0.394077321240616E-01 Delta-E=       -0.000000000027 Rises=F Damp=F
 DIIS: error= 7.80D-08 at cycle   9 NSaved=   9.
 NSaved= 9 IEnMin= 9 EnMin= 0.394077321240616E-01 IErMin= 9 ErrMin= 7.80D-08
 ErrMax= 7.80D-08  0.00D+00 EMaxC= 1.00D-01 BMatC= 2.17D-13 BMatP= 4.41D-12
 IDIUse=1 WtCom= 1.00D+00 WtEn= 0.00D+00
 Coeff-Com: -0.599D-05 0.737D-04-0.100D-03-0.367D-03 0.305D-02-0.151D-01
 Coeff-Com:  0.871D-01-0.432D+00 0.136D+01
 Coeff:     -0.599D-05 0.737D-04-0.100D-03-0.367D-03 0.305D-02-0.151D-01
 Coeff:      0.871D-01-0.432D+00 0.136D+01
 Gap=     0.267 Goal=   None    Shift=    0.000
 RMSDP=5.32D-08 MaxDP=5.28D-07 DE=-2.68D-11 OVMax= 5.27D-07

 Cycle  10  Pass 1  IDiag  3:
 E= 0.394077321227257E-01 Delta-E=       -0.000000000001 Rises=F Damp=F
 DIIS: error= 1.31D-08 at cycle  10 NSaved=  10.
 NSaved=10 IEnMin=10 EnMin= 0.394077321227257E-01 IErMin=10 ErrMin= 1.31D-08
 ErrMax= 1.31D-08  0.00D+00 EMaxC= 1.00D-01 BMatC= 9.66D-15 BMatP= 2.17D-13
 IDIUse=1 WtCom= 1.00D+00 WtEn= 0.00D+00
 Coeff-Com: -0.261D-06 0.213D-04-0.473D-04-0.374D-04 0.809D-03-0.261D-02
 Coeff-Com:  0.171D-03 0.477D-01-0.353D+00 0.131D+01
 Coeff:     -0.261D-06 0.213D-04-0.473D-04-0.374D-04 0.809D-03-0.261D-02
 Coeff:      0.171D-03 0.477D-01-0.353D+00 0.131D+01
 Gap=     0.267 Goal=   None    Shift=    0.000
 RMSDP=1.25D-08 MaxDP=1.34D-07 DE=-1.34D-12 OVMax= 1.51D-07

 Cycle  11  Pass 1  IDiag  3:
 E= 0.394077321225836E-01 Delta-E=        0.000000000000 Rises=F Damp=F
 DIIS: error= 5.01D-09 at cycle  11 NSaved=  11.
 NSaved=11 IEnMin=11 EnMin= 0.394077321225836E-01 IErMin=11 ErrMin= 5.01D-09
 ErrMax= 5.01D-09  0.00D+00 EMaxC= 1.00D-01 BMatC= 5.54D-16 BMatP= 9.66D-15
 IDIUse=1 WtCom= 1.00D+00 WtEn= 0.00D+00
 Coeff-Com:  0.227D-06-0.774D-05 0.164D-04 0.155D-04-0.281D-03 0.945D-03
 Coeff-Com: -0.115D-02-0.759D-02 0.848D-01-0.453D+00 0.138D+01
 Coeff:      0.227D-06-0.774D-05 0.164D-04 0.155D-04-0.281D-03 0.945D-03
 Coeff:     -0.115D-02-0.759D-02 0.848D-01-0.453D+00 0.138D+01
 Gap=     0.267 Goal=   None    Shift=    0.000
 RMSDP=3.84D-09 MaxDP=5.35D-08 DE=-1.42D-13 OVMax= 6.24D-08

 Cycle  12  Pass 2  IDiag  1:
 SCF Done:  E(RPM7) =  0.394077321226E-01 A.U. after   12 cycles
            NFock= 11  Conv=0.38D-08     -V/T= 1.0007
 KE=-5.362739348785D+01 PE=-1.840652776042D+02 EE= 1.078829858728D+02
 Leave Link  502 at Sat Dec 13 16:27:55 2025, MaxMem=   536870912 cpu:               0.0 elap:               0.6
 (Enter D:\G16W\l801.exe)
 Range of M.O.s used for correlation:     1    35
 NBasis=    35 NAE=    17 NBE=    17 NFC=     0 NFV=     0
 NROrb=     35 NOA=    17 NOB=    17 NVA=    18 NVB=    18
 Leave Link  801 at Sat Dec 13 16:27:55 2025, MaxMem=   536870912 cpu:               0.0 elap:               0.1
 (Enter D:\G16W\l1101.exe)
 Using compressed storage, NAtomX=    15.
 Will process     16 centers per pass.
 R6Disp: Adding PM7 dispersion energy 1st derivatives to the gradient.
 Leave Link 1101 at Sat Dec 13 16:27:55 2025, MaxMem=   536870912 cpu:               0.0 elap:               0.1
 (Enter D:\G16W\l1102.exe)
 Symmetrizing basis deriv contribution to polar:
 IMax=3 JMax=2 DiffMx= 0.00D+00
 Leave Link 1102 at Sat Dec 13 16:27:56 2025, MaxMem=   536870912 cpu:               0.0 elap:               0.1
 (Enter D:\G16W\l1110.exe)
 Forming Gx(P) for the SCF density, NAtomX=    15.
 Integral derivatives from FoFJK, PRISM(SPDF).
 Do as many integral derivatives as possible in FoFJK.
 G2DrvN: MDV=     536810790.
 G2DrvN: will do    16 centers at a time, making    1 passes.
 Calling FoFCou, ICntrl=  3107 FMM=F I1Cent=   0 AccDes= 0.00D+00.
 FoFJK:  IHMeth=43 ICntrl=    3107 DoSepK=F KAlg= 0 I1Cent=           0 FoldK=F
 IRaf=         0 NMat=       1 IRICut=       1 DoRegI=T DoRafI=F ISym2E= 0 IDoP0=3 IntGTp=3.
 FoFCou: FMM=F IPFlag=           0 FMFlag=      100000 FMFlg1=           0
         NFxFlg=           0 DoJE=F BraDBF=F KetDBF=F FulRan=T
         wScrn=  0.000000 ICntrl=      3107 IOpCl=  0 I1Cent=           0 NGrid=           0
         NMat0=    1 NMatS0=      1 NMatT0=    0 NMatD0=    1 NMtDS0=    0 NMtDT0=    0
 Symmetry not used in FoFCou.
 End of G2Drv F.D. properties file   721 does not exist.
 End of G2Drv F.D. properties file   722 does not exist.
 End of G2Drv F.D. properties file   788 does not exist.
 Leave Link 1110 at Sat Dec 13 16:27:56 2025, MaxMem=   536870912 cpu:               0.0 elap:               0.1
 (Enter D:\G16W\l1002.exe)
 Minotr:  Closed shell wavefunction.
          IDoAtm=111111111111111
          Direct CPHF calculation.
          Differentiating once with respect to electric field.
                with respect to dipole field.
          Differentiating once with respect to nuclear coordinates.
          Electric field/nuclear overlap derivatives assumed to be zero.
          Requested convergence is 1.0D-08 RMS, and 1.0D-07 maximum.
          NewPWx=T KeepS1=F KeepF1=F KeepIn=T MapXYZ=F SortEE=F KeepMc=T.
 Keep J ints in memory in canonical form, NReq=1853098.
 FoFCou: FMM=F IPFlag=           0 FMFlag=           0 FMFlg1=           0
         NFxFlg=           0 DoJE=F BraDBF=F KetDBF=F FulRan=T
         wScrn=  0.000000 ICntrl=       600 IOpCl=  2 I1Cent=           0 NGrid=           0
         NMat0=    1 NMatS0=     95 NMatT0=    0 NMatD0=    1 NMtDS0=    0 NMtDT0=    0
 Symmetry not used in FoFCou.
 Two-electron integral symmetry not used.
          MDV=     536870912 using IRadAn=       1.
          Solving linear equations separately, MaxMat=       0.
          There are    48 degrees of freedom in the 1st order CPHF.  IDoFFX=5 NUNeed=    48.
 LinEq1:  Iter=  0 NonCon=    48 RMS=4.81D-01 Max=7.91D+00 NDo=    48
 AX will form    48 AO Fock derivatives at one time.
 LinEq1:  Iter=  1 NonCon=    48 RMS=4.47D-02 Max=2.24D-01 NDo=    48
 LinEq1:  Iter=  2 NonCon=    48 RMS=7.02D-03 Max=4.20D-02 NDo=    48
 LinEq1:  Iter=  3 NonCon=    48 RMS=1.36D-03 Max=8.23D-03 NDo=    48
 LinEq1:  Iter=  4 NonCon=    48 RMS=2.19D-04 Max=1.04D-03 NDo=    48
 LinEq1:  Iter=  5 NonCon=    48 RMS=3.75D-05 Max=1.52D-04 NDo=    48
 LinEq1:  Iter=  6 NonCon=    48 RMS=4.72D-06 Max=2.82D-05 NDo=    48
 LinEq1:  Iter=  7 NonCon=    19 RMS=6.74D-07 Max=3.64D-06 NDo=    48
 LinEq1:  Iter=  8 NonCon=     3 RMS=1.03D-07 Max=7.51D-07 NDo=    48
 LinEq1:  Iter=  9 NonCon=     2 RMS=1.85D-08 Max=1.12D-07 NDo=    48
 LinEq1:  Iter= 10 NonCon=     0 RMS=2.96D-09 Max=1.76D-08 NDo=    48
 Linear equations converged to 1.000D-08 1.000D-07 after    10 iterations.
 FullF1:  Do perturbations      1 to       3.
 Isotropic polarizability for W=    0.000000       71.67 Bohr**3.
 End of Minotr F.D. properties file   721 does not exist.
 End of Minotr F.D. properties file   722 does not exist.
 End of Minotr F.D. properties file   788 does not exist.
 Leave Link 1002 at Sat Dec 13 16:27:56 2025, MaxMem=   536870912 cpu:               0.0 elap:               0.3
 (Enter D:\G16W\l701.exe)
 ... and contract with generalized density number  0.
 Compute integral second derivatives.
 R6Disp: Adding PM7 dispersion energy 2nd derivatives to the Hessian.
 Leave Link  701 at Sat Dec 13 16:27:56 2025, MaxMem=   536870912 cpu:               0.0 elap:               0.1
 (Enter D:\G16W\l702.exe)
 L702 exits ... SP integral derivatives will be done elsewhere.
 Leave Link  702 at Sat Dec 13 16:27:56 2025, MaxMem=   536870912 cpu:               0.0 elap:               0.1
 (Enter D:\G16W\l703.exe)
 Integral derivatives from FoFJK, PRISM(SPDF).
 Compute integral second derivatives, UseDBF=F ICtDFT=           0.
 Calling FoFJK, ICntrl=    100127 FMM=F ISym2X=0 I1Cent= 0 IOpClX= 0 NMat=1 NMatS=1 NMatT=0.
 FoFJK:  IHMeth=43 ICntrl=  100127 DoSepK=F KAlg= 0 I1Cent=           0 FoldK=F
 IRaf=         0 NMat=       1 IRICut=       1 DoRegI=T DoRafI=F ISym2E= 0 IDoP0=3 IntGTp=3.
 FoFCou: FMM=F IPFlag=           0 FMFlag=      100000 FMFlg1=         800
         NFxFlg=           0 DoJE=F BraDBF=F KetDBF=F FulRan=T
         wScrn=  0.000000 ICntrl=    100127 IOpCl=  0 I1Cent=           0 NGrid=           0
         NMat0=    1 NMatS0=      1 NMatT0=    0 NMatD0=    1 NMtDS0=    0 NMtDT0=    0
 Symmetry not used in FoFCou.
 Leave Link  703 at Sat Dec 13 16:27:57 2025, MaxMem=   536870912 cpu:               1.0 elap:               0.1
 (Enter D:\G16W\l716.exe)
 Dipole        = 5.35354441D+00 7.19978078D-06-3.24471931D-01
 Polarizability= 1.55717774D+02-2.67742476D-04 3.22484266D+01
                -6.93067850D+00-4.94761814D-05 2.70558766D+01
 HyperPolar    = 5.73291852D+03-1.62356882D-02 6.87909288D+01
                -8.58836817D-03-3.51975223D+02 5.18139936D-04
                -2.15204784D+00 6.11708365D+01 7.23065278D-03
                -4.57291814D+00
 ***** Axes restored to original set *****
 -------------------------------------------------------------------
 Center     Atomic                   Forces (Hartrees/Bohr)
 Number     Number              X              Y              Z
 -------------------------------------------------------------------
      1        6           0.000074452   -0.000019124    0.000007518
      2        7          -0.000009577   -0.000000387   -0.000035843
      3        6           0.000074181    0.000018853    0.000007074
      4        1           0.000003995   -0.000006793   -0.000003574
      5        1          -0.000002766    0.000000234   -0.000002181
      6        1          -0.000003908   -0.000000196    0.000000444
      7        1           0.000039988    0.000000498    0.000020683
      8        1          -0.000002817   -0.000000281   -0.000002242
      9        1           0.000003992    0.000006764   -0.000003549
     10        1          -0.000003872    0.000000168    0.000000411
     11        6          -0.000627741   -0.000001084   -0.000022694
     12       53           0.000030608    0.000000052   -0.000006597
     13        1           0.000141183   -0.000108839    0.000073119
     14        1           0.000141460    0.000000965   -0.000106012
     15        1           0.000140823    0.000109171    0.000073444
 -------------------------------------------------------------------
 Cartesian Forces:  Max     0.000627741 RMS     0.000107140
 FormGI is forming the generalized inverse of G from B-inverse, IUseBI=4.
 Leave Link  716 at Sat Dec 13 16:27:57 2025, MaxMem=   536870912 cpu:               0.0 elap:               0.1
 (Enter D:\G16W\l103.exe)

 GradGradGradGradGradGradGradGradGradGradGradGradGradGradGradGradGradGrad
 Berny optimization.
 Red2BG is reusing G-inverse.
 Internal  Forces:  Max     0.000245344 RMS     0.000052745
 Search for a saddle point.
 Step number   2 out of a maximum of   86
 All quantities printed in internal units (Hartrees-Bohrs-Radians)
 Swapping is turned off.
 Second derivative matrix not updated -- analytic derivatives used.
 ITU=  0  0
     Eigenvalues ---   -0.05331   0.00063   0.00122   0.00134   0.01875
     Eigenvalues ---    0.01908   0.02101   0.02549   0.03347   0.03440
     Eigenvalues ---    0.03612   0.03823   0.03908   0.03959   0.04061
     Eigenvalues ---    0.04432   0.08207   0.08297   0.09609   0.11558
     Eigenvalues ---    0.11736   0.12533   0.14552   0.14962   0.15066
     Eigenvalues ---    0.15462   0.16071   0.22553   0.22753   0.25364
     Eigenvalues ---    0.25454   0.25494   0.25530   0.25752   0.26502
     Eigenvalues ---    0.27037   0.27783   0.42015   0.49064
 Eigenvectors required to have negative eigenvalues:
                          R7        R11       A20       A21       A19
   1                    0.70238  -0.55003  -0.24746  -0.24490  -0.24488
                          A22       A24       A23       R15       R17
   1                    0.06916   0.06914   0.06913  -0.03712  -0.03701
 RFO step:  Lambda0=2.416807106D-06 Lambda=-1.18281599D-06.
 Linear search not attempted -- option 19 set.
 Iteration  1 RMS(Cart)=  0.00059812 RMS(Int)=  0.00000032
 Iteration  2 RMS(Cart)=  0.00000026 RMS(Int)=  0.00000021
[...]
   xxx        0.579851D+04      0.500946D+02      0.185921D+02
   xxy       -0.280537D+00     -0.242362D-02     -0.899503D-03
   yxy        0.688990D+02      0.595233D+00      0.220915D+00
   yyy       -0.109335D-01     -0.944573D-04     -0.350569D-04
   xxz        0.341049D+03      0.294640D+01      0.109353D+01
   yxz       -0.199232D-01     -0.172121D-03     -0.638811D-04
   yyz        0.200366D+01      0.173101D-01      0.642447D-02
   zxz        0.596899D+02      0.515674D+00      0.191387D+00
   zyz       -0.331521D-02     -0.286408D-04     -0.106298D-04
   zzz        0.413069D+01      0.356859D-01      0.132445D-01

 ----------------------------------------------------------------------

 Dipole orientation:
     6          0.78760278         -2.31784698          6.32562428
     7         -0.47057710          0.00030325          5.35998857
     6          0.78832213          2.31806286          6.32562440
     1          0.78419541         -2.43658694          8.40312872
     1         -0.17538053         -4.01261607          5.57555081
     1          2.77238938         -2.39278644          5.68071554
     1         -2.35175478          0.00059514          5.85921120
     1         -0.17413576          4.01313074          5.57555176
     1          0.78495239          2.43680333          8.40312887
     1          2.77313164          2.39238685          5.68071494
     6         -0.33305775          0.00028203          1.82544636
    53         -0.15489656          0.00025428         -3.21244045
     1         -1.34848835         -1.76897213          1.62214741
     1          1.71378699         -0.00003504          1.72298679
     1         -1.34794023          1.76985062          1.62214747

 Electric dipole moment (dipole orientation):
 (Debye = 10**-18 statcoulomb cm , SI units = C m)
                  (au)            (Debye)         (10**-30 SI)
   Tot        0.538547D+01      0.136885D+02      0.456599D+02
   x          0.000000D+00      0.000000D+00      0.000000D+00
   y          0.000000D+00      0.000000D+00      0.000000D+00
   z          0.538547D+01      0.136885D+02      0.456599D+02

 Dipole polarizability, Alpha (dipole orientation).
 (esu units = cm**3 , SI units = C**2 m**2 J**-1)
 Alpha(0;0):
               (au)            (10**-24 esu)      (10**-40 SI)
   iso        0.716385D+02      0.106157D+02      0.118116D+02
   aniso      0.126601D+03      0.187604D+02      0.208737D+02
   xx         0.266927D+02      0.395545D+01      0.440103D+01
   yx         0.862364D-03      0.127789D-03      0.142185D-03
   yy         0.322509D+02      0.477909D+01      0.531745D+01
   zx         0.902396D+00      0.133721D+00      0.148785D+00
   zy        -0.139621D-03     -0.206896D-04     -0.230203D-04
   zz         0.155972D+03      0.231127D+02      0.257163D+02

 First dipole hyperpolarizability, Beta (dipole orientation).
 ||, _|_  parallel and perpendicular components, (z) with respect to z axis,
 vector components x,y,z.  Values do not include the 1/n! factor of 1/2.
 (esu units = statvolt**-1 cm**4 , SI units = C**3 m**3 J**-2)
 Beta(0;0,0):
               (au)            (10**-30 esu)      (10**-50 SI)
   || (z)     0.356236D+04      0.307760D+02      0.114222D+02
   _|_(z)     0.118745D+04      0.102587D+02      0.380740D+01
   x         -0.924387D+01     -0.798598D-01     -0.296392D-01
   y          0.164408D-02      0.142036D-04      0.527153D-05
   z          0.178118D+05      0.153880D+03      0.571110D+02
   ||         0.356236D+04      0.307760D+02      0.114222D+02
   xxx        0.393147D+01      0.339649D-01      0.126057D-01
   xxy        0.175094D-04      0.151268D-06      0.561416D-07
   yxy        0.199290D+01      0.172171D-01      0.638997D-02
   yyy       -0.937420D-03     -0.809858D-05     -0.300571D-05
   xxz        0.393390D+02      0.339858D+00      0.126135D+00
   yxz        0.458938D-02      0.396487D-04      0.147152D-04
   yyz        0.688993D+02      0.595236D+00      0.220916D+00
   zxz       -0.900567D+01     -0.778019D-01     -0.288754D-01
   zyz        0.146794D-02      0.126818D-04      0.470674D-05
   zzz        0.582902D+04      0.503582D+02      0.186900D+02

 ----------------------------------------------------------------------
 1|1|UNPC-HS-R-MBKE-2023|Freq|RPM7|ZDO|C3H10I1N1|15816|13-Dec-2025|0||#
 P Geom=AllCheck Guess=TCheck SCRF=Check GenChk RPM7/ZDO Freq||title: M
 e2NH_Smart_TS||0,1|C,3.365847465,-1.2266986715,-0.2221369131|N,2.81718
 35702,0.0000077728,0.4129892815|C,3.3659846861,1.2265191809,-0.2223949
 67|H,4.4632600487,-1.2895878911,-0.1566235509|H,2.9400164094,-2.123536
 0206,0.263546211|H,3.0860210457,-1.26628868,-1.2904563759|H,3.02322161
 44,0.0001023933,1.4221033118|H,2.9402543366,2.1235063104,0.2630997976|
 H,4.4634043377,1.2892991887,-0.1568952344|H,3.0861622885,1.2659159861,
 -1.2907226271|C,0.9541460811,0.0000929479,0.2319361899|I,-1.7018433873
 ,0.0002152325,-0.0166945933|H,0.8155588831,-0.9361758941,0.7620940197|
 H,0.9627940376,-0.0000213275,-0.8525291128|H,0.8156635831,0.9364884697
 ,0.7618975631||Version=EM64W-G16RevA.03|State=1-A|HF=0.0394082|RMSD=4.
 572e-010|RMSF=1.278e-007|ZeroPoint=0.1196063|Thermal=0.1276282|Dipole=
 5.3764151,-0.0002678,0.3121272|DipoleDeriv=-0.8149776,-0.0509418,-0.03
 11512,-0.0998034,-0.3324969,0.1505319,-0.0978776,0.1795585,-0.4683036,
 -1.8308737,0.0000852,-0.1041539,0.0000902,-0.1112396,-0.0000087,-0.057
 1615,-0.0000114,-0.2497701,-0.8149608,0.0509892,-0.0311788,0.0998368,-
 0.3325832,-0.150557,-0.0979187,-0.1795761,-0.4682341,0.2335176,-0.0039
 079,0.0092841,0.0238108,0.1258333,-0.0373984,0.0216857,-0.0381936,0.16
 6877,0.200813,0.0469358,0.0135258,-0.0718599,0.2227219,-0.0519458,0.03
 44756,-0.0469743,0.1844073,0.2142511,0.0278186,0.0153692,-0.0214388,0.
 165762,0.012908,-0.0790582,0.0112471,0.2428906,0.0277778,-0.0000002,-0
 .047572,0.0000169,0.1140788,0.0000263,0.1142686,0.0000172,0.3385301,0.
 2008158,-0.0469305,0.0135415,0.0718696,0.2227399,0.0519363,0.0344658,0
 .0469624,0.1843865,0.2335154,0.0038978,0.0092874,-0.0238183,0.1258515,
 0.037406,0.021695,0.0381998,0.1668611,0.2142503,-0.0278208,0.0153737,0
 .0214167,0.1657576,-0.0128935,-0.0790639,-0.0112221,0.2428957,5.196025
 3,-0.0002699,0.3199582,-0.0002542,-0.2325281,-0.0000128,0.469604,-0.00
 00212,-0.1841768,-2.2936375,0.0000803,-0.0934016,0.0000737,-0.6812278,
 0.0000041,-0.1559066,0.0000076,-0.6915698,-0.2581878,0.0276203,-0.0433
 061,-0.1088861,0.2026001,-0.0484476,0.0231307,-0.0339329,0.164571,-0.2
 501654,0.0000217,-0.0022804,0.0000035,0.1421228,0.0000068,-0.1754557,0
 .0000165,0.2060722,-0.2581787,-0.0275779,-0.0432949,0.1089424,0.202608
 3,0.0484445,0.0231116,0.0339224,0.1645537|Polar=155.6420733,-0.0062057
 ,32.2508755,6.5837466,-0.0009179,27.0225239|HyperPolar=5798.5137738,-0
 .2805369,68.8989767,-0.0109335,341.0494648,-0.0199232,2.0036646,59.689
 8863,-0.0033152,4.1306895|PG=C01 [X(C3H10I1N1)]|NImag=1||0.41687929,-0
 .00947326,0.44729262,-0.01087156,0.01224681,0.43168880,-0.09828103,0.0
 4304313,0.02320936,0.29892022,0.06309711,-0.17084845,-0.04827051,0.000
 01024,0.56481141,0.03605540,-0.05501968,-0.10733689,-0.04403444,-0.000
 00508,0.49311276,0.00730058,0.00891411,-0.00706801,-0.09829290,-0.0630
 9764,0.03607484,0.41688141,-0.00892145,-0.04502093,0.00645837,-0.04304
 636,-0.17081485,0.05502900,0.00947437,0.44728535,-0.00706685,-0.006446
 03,0.00988397,0.02322382,0.04828127,-0.10735862,-0.01087493,-0.0122488
 8,0.43169396,-0.20657572,0.00782300,-0.01087467,-0.02228262,0.01802607
 ,0.00736666,0.00013410,0.00023564,-0.00055437,0.25685970,0.00039513,-0
 .03723268,0.00089935,0.03456097,-0.01432923,-0.00710750,0.00081310,-0.
 00047543,0.00061958,-0.01875954,0.04965809,-0.01540877,0.00133305,-0.0
 3887353,0.01669013,-0.00833589,0.00071644,0.00017177,-0.00006687,0.000
 09266,0.01002459,0.00567941,0.03958491,-0.06507848,-0.05659957,0.03099
 391,0.00687492,0.00768103,-0.00338078,-0.00118339,0.00165050,0.0009028
 7,-0.01630155,-0.01846726,0.01151034,0.06916623,-0.05204460,-0.1434819
 1,0.05807453,-0.00552816,-0.04665831,0.00457006,0.00150496,-0.00198748
 ,-0.00169001,-0.00768071,-0.00027232,0.00283248,0.06219377,0.19559443,
 0.03178068,0.06624491,-0.07388598,-0.00399707,-0.01011440,0.00766970,0
 .00137740,-0.00198401,-0.00099179,0.00253846,0.00090185,0.00394350,-0.
 03911922,-0.07146563,0.08019204,-0.04993417,-0.00157727,-0.04584727,0.
 00548046,0.00253359,0.01116188,-0.00019158,0.00032156,-0.00003646,-0.0
 1201105,0.00123855,-0.02348199,0.00612684,-0.00141182,0.00749128,0.051
 47171,0.00005972,-0.03748020,0.00399177,-0.00236328,-0.00977613,-0.035
 35994,-0.00110825,-0.00134900,-0.00059550,-0.00021138,0.00456220,-0.00
 048713,0.00230420,-0.00106036,0.01811491,-0.00328159,0.04981333,-0.042
 62652,-0.00484497,-0.19548675,0.00115961,-0.01840371,-0.02712439,-0.00
 069789,-0.00050051,-0.00021786,-0.00953395,0.00063494,-0.00524931,-0.0
 0112489,0.00857568,-0.01743715,0.04951796,0.01616512,0.24544777,0.0034
 6099,0.00343508,0.01701245,-0.05512323,-0.00000568,-0.05515636,0.00346
 093,-0.00343283,0.01701715,0.00025118,0.00081355,0.00106105,0.00065910
 ,-0.00061160,-0.00024355,-0.00063406,0.00231957,0.00037914,0.05394171,
 -0.00284616,-0.00839785,-0.03558932,-0.00000290,-0.05298769,-0.0000134
 2,0.00284517,-0.00838692,0.03558368,0.00000899,0.00026188,-0.00067818,
 0.00001952,-0.00094634,-0.00148185,0.00186843,-0.00341560,-0.00140006,
 0.00000471,0.07657085,0.00158776,-0.01602129,-0.02613805,-0.02870369,-
 0.00001490,-0.20994536,0.00158896,0.01601738,-0.02614891,0.00073824,-0
 .00057262,-0.00026609,-0.00001044,-0.00125508,-0.00006213,0.00053662,-
 0.00154675,-0.00051312,0.03276891,0.00001811,0.26615831,-0.00118375,-0
 .00165040,0.00090341,0.00687468,-0.00768774,-0.00337967,-0.06506628,0.
 05659727,0.03097550,-0.00007910,0.00014708,0.00008482,0.00031529,-0.00
 030930,-0.00026386,0.00007633,0.00003232,0.00014447,0.00065917,-0.0000
 1970,-0.00001029,0.06915226,-0.00150476,-0.00198635,0.00169011,0.00552
 132,-0.04665690,-0.00455826,0.05204246,-0.14352021,-0.05806338,-0.0001
 2632,-0.00009719,0.00007631,0.00030915,-0.00051773,-0.00038466,-0.0000
 5814,-0.00009006,0.00015159,0.00061137,-0.00094583,0.00125527,-0.06218
 779,0.19563841,0.00137794,0.00198407,-0.00099256,-0.00399709,0.0101262
 7,0.00766853,0.03176231,-0.06623386,-0.07385987,0.00017734,-0.00009551
 ,-0.00003219,-0.00026388,0.00038488,0.00040140,0.00003670,-0.00008096,
 -0.00007226,-0.00024351,0.00148206,-0.00006271,-0.03909813,0.07144577,
 0.08016203,0.00013399,-0.00023582,-0.00055439,-0.02228851,-0.01802363,
 0.00737125,-0.20657665,-0.00780631,-0.01087307,0.00026866,-0.00022221,
 -0.00001721,-0.00007910,0.00012636,0.00017732,0.00003664,-0.00012866,-
 0.00005507,0.00025108,-0.00000883,0.00073831,-0.01629861,0.00768304,0.
 00253675,0.25686391,-0.00081313,-0.00047543,-0.00061940,-0.03455657,-0
 .01432009,0.00710985,-0.00037940,-0.03723223,-0.00089847,0.00022211,-0
 .00063251,0.00019997,-0.00014706,-0.00009718,0.00009551,-0.00022403,-0
 .00032812,-0.00010306,-0.00081333,0.00026223,0.00057242,0.01847148,-0.
 00027604,-0.00090126,0.01873843,0.04965150,0.00017195,0.00006697,0.000
 09278,0.01669833,0.00833719,0.00071318,-0.01540877,-0.00133166,-0.0388
 7305,-0.00001728,-0.00019979,0.00021963,0.00008484,-0.00007631,-0.0000
 3219,-0.00013419,-0.00015220,0.00011392,0.00106130,0.00067795,-0.00026
 635,0.01150615,-0.00283289,0.00394428,0.01001993,-0.00568265,0.0395872
 9,-0.00019149,-0.00032170,-0.00003632,0.00548044,-0.00253295,0.0111663
 6,-0.04993404,0.00156903,-0.04584811,0.00003668,0.00022396,-0.00013422
 ,0.00007634,0.00005813,0.00003670,0.00035082,0.00020751,0.00005260,-0.
 00063452,-0.00186863,0.00053719,0.00612675,0.00141259,0.00748894,-0.01
 201118,-0.00124163,-0.02348167,0.05147249,0.00110797,-0.00134885,0.000
 59574,0.00236182,-0.00976481,0.03535504,-0.00006728,-0.03748020,-0.004
 01984,0.00012861,-0.00032811,0.00015230,-0.00003231,-0.00009008,0.0000
 8096,-0.00020764,-0.00086996,-0.00006037,-0.00231980,-0.00341451,0.001
 54730,-0.00230525,-0.00106587,-0.01811919,0.00021123,0.00456228,0.0004
 8770,0.00329181,0.04980580,-0.00069807,0.00050083,-0.00021809,0.001161
 17,0.01839993,-0.02713570,-0.04262602,0.00481653,-0.19548689,-0.000055
 08,0.00010316,0.00011386,0.00014446,-0.00015160,-0.00007224,0.00005265
 ,0.00006064,0.00043477,0.00037979,0.00140063,-0.00051374,-0.00112538,-
 0.00857899,-0.01743154,-0.00953406,-0.00063593,-0.00524926,0.04951553,
 -0.01612954,0.24545452,0.00532214,0.00507694,0.00376133,0.07814942,-0.
 00000530,0.00583137,0.00532035,-0.00507681,0.00376238,-0.00053606,-0.0
 0209050,-0.00130817,-0.00000543,0.00546552,0.00001347,-0.00057979,0.00
 309827,0.00445643,0.00291184,-0.00000117,-0.01018100,-0.00000608,-0.00
 546554,0.00001462,-0.00053585,0.00209015,-0.00130854,-0.00058015,-0.00
 309727,0.00445707,-0.12456903,0.01091953,-0.00059842,0.00016853,-0.000
 00509,-0.02746519,-0.00000047,-0.01091879,-0.00059656,-0.00016843,0.00
 021852,-0.00112252,-0.00062187,0.00039423,-0.00030686,-0.00003067,0.00
 013415,-0.00004835,0.00011053,-0.00000138,0.00109005,0.00000017,-0.000
 39426,-0.00030634,0.00003072,-0.00021856,-0.00112241,0.00062216,-0.000
 13401,-0.00004803,-0.00011099,0.00002582,0.42913315,0.00664453,-0.0005
 0964,0.00189932,0.00774330,-0.00000057,-0.02879388,0.00664688,0.000509
 42,0.00189925,0.00011390,-0.00090038,-0.00041996,-0.00000288,0.0006635
 4,-0.00006159,0.00037459,0.00009102,0.00015913,-0.01211612,0.00000028,
 -0.00270203,-0.00000288,-0.00066349,-0.00006145,0.00011405,0.00090051,
 -0.00042028,0.00037461,-0.00009102,0.00015917,-0.04888654,0.00000222,0
 .42415136,-0.00430507,0.00023651,-0.00046462,-0.02550969,0.00000131,-0
 .00183397,-0.00430509,-0.00023611,-0.00046456,0.00028216,0.00043208,0.
 00030456,0.00021593,-0.00152234,0.00021657,0.00043166,-0.00072618,-0.0
 0127888,-0.00217252,0.00000027,0.00143113,0.00021612,0.00152235,0.0002
 1624,0.00028211,-0.00043204,0.00030465,0.00043175,0.00072585,-0.001279
 03,0.05751928,-0.00000296,0.00556556,0.04394802,-0.00006402,0.00017472
 ,-0.00010823,0.00000125,0.00141866,0.00000012,0.00006441,0.00017477,0.
 00010828,-0.00002320,0.00005521,0.00005731,-0.00019821,-0.00011943,0.0
 0002424,-0.00011365,-0.00009484,-0.00000956,0.00000014,-0.00012251,-0.
 00000007,0.00019818,-0.00011960,-0.00002426,0.00002318,0.00005522,-0.0
 0005735,0.00011357,-0.00009491,0.00000966,-0.00000289,-0.00578950,-0.0
 0000027,-0.00000181,0.00525700,-0.00050393,-0.00004285,0.00016472,-0.0
 0246781,0.00000015,0.00156356,-0.00050394,0.00004291,0.00016469,0.0000
 1582,0.00010535,0.00001618,0.00001708,-0.00011357,-0.00009693,-0.00010
 527,-0.00005871,-0.00029214,0.00024949,0.,-0.00005239,0.00001705,0.000
 11357,-0.00009695,0.00001581,-0.00010536,0.00001621,-0.00010529,0.0000
 5868,-0.00029215,0.00618087,-0.00000030,-0.00535710,0.00332836,-0.0000
 0015,0.00562054,-0.00239926,0.00046045,0.00055521,-0.02770750,-0.01509
 054,0.00612527,-0.00306823,-0.00007123,-0.00035440,-0.00001304,0.00014
 769,0.00009916,-0.00060739,0.00031573,0.00008899,-0.00012070,-0.000176
 16,-0.00009893,-0.00191891,-0.00048047,-0.00052086,-0.00008980,0.00037
 166,-0.00001685,-0.00003559,-0.00059996,0.00032137,-0.00005194,0.00022
 735,-0.00033111,-0.00838018,-0.01709445,0.01272666,-0.02156671,0.00656
 128,-0.00596491,0.05748016,0.00004873,-0.00019035,0.00028330,-0.009195
 81,-0.00214295,0.00142296,0.00030939,-0.00006704,-0.00002747,0.0000459
 4,-0.00008306,-0.00010024,0.00054567,0.00007105,-0.00009842,0.00014479
 ,0.00015997,-0.00012428,-0.00043475,0.00012766,-0.00026086,-0.00007787
 ,-0.00004483,0.00004925,-0.00002974,0.00009512,-0.00001683,-0.00006099
 ,-0.00001037,0.00001510,-0.01692066,-0.17577064,0.07629794,0.00432047,
 -0.00107939,0.00181291,0.02404336,0.20007008,0.00028463,0.00000163,-0.
 00041351,0.00267807,0.00086397,0.00116584,-0.00047432,-0.00003925,-0.0
 0004113,0.00003470,-0.00003530,0.00004687,0.00029064,-0.00027909,0.000
 26677,0.00025354,-0.00002260,-0.00005934,-0.00098981,-0.00020388,0.000
 26540,0.00000387,0.00005149,0.00002932,0.00000901,-0.00007828,0.000095
 39,0.00004353,0.00007746,-0.00002776,0.01285327,0.07656630,-0.08455404
 ,-0.00462320,0.00201722,-0.00025010,-0.01254551,-0.09211409,0.08955444
 ,-0.00207990,0.00079723,-0.00036441,-0.02459048,-0.00000058,-0.0194897
 7,-0.00208003,-0.00079711,-0.00036426,0.00000226,0.00016741,0.00008271
 ,-0.00008939,-0.00018428,-0.00008038,-0.00045110,0.00020127,0.00003697
 ,-0.00319390,0.00000019,0.00002005,-0.00008940,0.00018426,-0.00008044,
 0.00000223,-0.00016740,0.00008276,-0.00045119,-0.00020121,0.00003703,-
 0.00565377,-0.00000115,0.00798985,-0.02389975,0.00000202,0.00579042,0.
 00404612,-0.00071122,0.00311839,0.05448192,0.00034833,-0.00033918,0.00
 015151,0.00000021,0.00168066,0.00000028,-0.00034819,-0.00033918,-0.000
 15147,0.00006255,-0.00005930,-0.00005739,0.00026847,-0.00008258,0.0001
 4648,0.00057203,-0.00001249,-0.00017630,0.00000017,0.00017704,-0.00000
 002,-0.00026848,-0.00008260,-0.00014643,-0.00006255,-0.00005924,0.0000
 5740,-0.00057195,-0.00001235,0.00017637,-0.00000120,-0.04124165,-0.000
 01935,0.00000175,0.00136344,-0.00000056,-0.00063887,0.00064823,0.02096
 066,-0.00000092,0.03771652,-0.00025286,0.00046682,-0.00034340,-0.01204
 012,-0.00000014,-0.00608123,-0.00025284,-0.00046679,-0.00034327,0.0000
 1661,-0.00011071,0.00001169,-0.00004591,-0.00001844,0.00013731,0.00013
 643,-0.00004223,0.00032454,-0.00019000,0.,-0.00001813,-0.00004585,0.00
 001849,0.00013734,0.00001663,0.00011072,0.00001166,0.00013655,0.000042
 28,0.00032449,0.00751224,-0.00001932,-0.22137584,0.00320016,-0.0000004
 1,-0.00085894,0.00085223,0.00508820,-0.01407606,0.00010523,0.00002292,
 0.25622071,-0.00306826,0.00007150,-0.00035441,-0.02770479,0.01509468,0
 .00612195,-0.00239931,-0.00046009,0.00055528,-0.00003552,0.00060004,0.
 00032124,-0.00008983,-0.00037166,-0.00001678,-0.00005195,-0.00022742,-
 0.00033107,-0.00191881,0.00048059,-0.00052093,-0.00060749,-0.00031563,
 0.00008907,-0.00001306,-0.00014767,0.00009921,-0.00012069,0.00017617,-
 0.00009895,-0.00837638,0.01707841,0.01271455,-0.02156793,-0.00656024,-
 0.00596373,0.00443288,-0.00202730,-0.00093684,0.00404627,0.00063867,0.
 00085152,0.05747478,-0.00030915,-0.00006700,0.00002751,0.00919923,-0.0
 0214615,-0.00142295,-0.00004842,-0.00019036,-0.00028341,0.00002975,0.0
 0009507,0.00001679,0.00007787,-0.00004482,-0.00004923,0.00006101,-0.00
 001037,-0.00001506,0.00043477,0.00012766,0.00026095,-0.00054553,0.0000
 7123,0.00009845,-0.00004594,-0.00008301,0.00010026,-0.00014471,0.00016
 000,0.00012425,0.01690464,-0.17580651,-0.07628023,-0.00431915,-0.00107
 897,-0.00181207,0.00202417,-0.02178346,-0.00776621,0.00071149,0.000642
 61,-0.00509139,-0.02403004,0.20011411,-0.00047425,0.00003931,-0.000041
 14,0.00267604,-0.00086358,0.00116632,0.00028464,-0.00000170,-0.0004134
 5,0.00000901,0.00007828,0.00009537,0.00000385,-0.00005148,0.00002935,0
 .00004351,-0.00007747,-0.00002774,-0.00098988,0.00020402,0.00026530,0.
 00029079,0.00027909,0.00026669,0.00003472,0.00003532,0.00004684,0.0002
 5357,0.00002253,-0.00005937,0.01284116,-0.07654860,-0.08452197,-0.0046
 2252,-0.00201653,-0.00024929,-0.00093640,0.00777256,0.00799779,0.00311
 590,-0.02096409,-0.01407059,-0.01253017,0.09209230,0.08951579||0.00000
 001,0.00000009,0.00000004,-0.00000017,0.,-0.00000012,0.00000001,-0.000
 00010,0.00000004,-0.00000002,0.,0.,0.00000001,0.00000002,0.,0.,0.00000
 001,0.00000001,-0.00000014,0.,-0.00000012,0.00000001,-0.00000002,0.,-0
 .00000002,0.,0.,0.,0.,0.00000001,0.00000048,0.00000001,0.00000015,0.00
 000031,0.,0.00000010,-0.00000023,0.00000021,-0.00000014,-0.00000007,0.
 ,0.00000018,-0.00000022,-0.00000022,-0.00000015|||@


 A leading authority is anyone who has guessed right more than once.
 -- Frank A. Clark
 Job cpu time:       0 days  0 hours  0 minutes  4.0 seconds.
 Elapsed time:       0 days  0 hours  0 minutes  3.0 seconds.
 File lengths (MBytes):  RWF=     11 Int=      0 D2E=      0 Chk=      2 Scr=      1
 Normal termination of Gaussian 16 at Sat Dec 13 16:28:05 2025.
