 Entering Gaussian System, Link 0=g16.exe
 Input=Me2NH_Smart_irc.gjf
 Output=Me2NH_Smart_irc.log
 Initial command:
 D:\G16W\l1.exe ".\Gau-26112.inp" "Me2NH_Smart_irc.log" /scrdir=".\"
 Entering Link 1 = D:\G16W\l1.exe PID=     26872.
  
 Copyright (c) 1988,1990,1992,1993,1995,1998,2003,2009,2016,
            Gaussian, Inc.  All Rights Reserved.
  
 This is part of the Gaussian(R) 16 program.  It is based on
 the Gaussian(R) 09 system (copyright 2009, Gaussian, Inc.),
 the Gaussian(R) 03 system (copyright 2003, Gaussian, Inc.),
 the Gaussian(R) 98 system (copyright 1998, Gaussian, Inc.),
 the Gaussian(R) 94 system (copyright 1995, Gaussian, Inc.),
 the Gaussian 92(TM) system (copyright 1992, Gaussian, Inc.),
 the Gaussian 90(TM) system (copyright 1990, Gaussian, Inc.),
 the Gaussian 88(TM) system (copyright 1988, Gaussian, Inc.),
 the Gaussian 86(TM) system (copyright 1986, Carnegie Mellon
 University), and the Gaussian 82(TM) system (copyright 1983,
 Carnegie Mellon University). Gaussian is a federally registered
 trademark of Gaussian, Inc.
  
 This software contains proprietary and confidential information,
 including trade secrets, belonging to Gaussian, Inc.
  
 This software is provided under written license and may be
 used, copied, transmitted, or stored only in accord with that
 written license.
  
 The following legend is applicable only to US Government
 contracts under FAR:
  
                    RESTRICTED RIGHTS LEGEND
  
 Use, reproduction and disclosure by the US Government is
 subject to restrictions as set forth in subparagraphs (a)
 and (c) of the Commercial Computer Software - Restricted
 Rights clause in FAR 52.227-19.
  
 Gaussian, Inc.
 340 Quinnipiac St., Bldg. 40, Wallingford CT 06492
  
  
 ---------------------------------------------------------------
 Warning -- This program may not be used in any manner that
 competes with the business of Gaussian, Inc. or will provide
 assistance to any competitor of Gaussian, Inc.  The licensee
 of this program is prohibited from giving any competitor of
 Gaussian, Inc. access to this program.  By using this program,
 the user acknowledges that Gaussian, Inc. is engaged in the
 business of creating and licensing software in the field of
 computational chemistry and represents and warrants to the
 licensee that it is not a competitor of Gaussian, Inc. and that
 it will not use this program in any manner prohibited above.
 ---------------------------------------------------------------
  

 Cite this work as:
 Gaussian 16, Revision A.03,
 M. J. Frisch, G. W. Trucks, H. B. Schlegel, G. E. Scuseria, 
 M. A. Robb, J. R. Cheeseman, G. Scalmani, V. Barone, 
 G. A. Petersson, H. Nakatsuji, X. Li, M. Caricato, A. V. Marenich, 
 J. Bloino, B. G. Janesko, R. Gomperts, B. Mennucci, H. P. Hratchian, 
 J. V. Ortiz, A. F. Izmaylov, J. L. Sonnenberg, D. Williams-Young, 
 F. Ding, F. Lipparini, F. Egidi, J. Goings, B. Peng, A. Petrone, 
 T. Henderson, D. Ranasinghe, V. G. Zakrzewski, J. Gao, N. Rega, 
 G. Zheng, W. Liang, M. Hada, M. Ehara, K. Toyota, R. Fukuda, 
 J. Hasegawa, M. Ishida, T. Nakajima, Y. Honda, O. Kitao, H. Nakai, 
 T. Vreven, K. Throssell, J. A. Montgomery, Jr., J. E. Peralta, 
 F. Ogliaro, M. J. Bearpark, J. J. Heyd, E. N. Brothers, K. N. Kudin, 
 V. N. Staroverov, T. A. Keith, R. Kobayashi, J. Normand, 
 K. Raghavachari, A. P. Rendell, J. C. Burant, S. S. Iyengar, 
 J. Tomasi, M. Cossi, J. M. Millam, M. Klene, C. Adamo, R. Cammi, 
 J. W. Ochterski, R. L. Martin, K. Morokuma, O. Farkas, 
 J. B. Foresman, and D. J. Fox, Gaussian, Inc., Wallingford CT, 2016.
 
 ******************************************
 Gaussian 16:  EM64W-G16RevA.03 17-Dec-2016
                13-Dec-2025 
 ******************************************
 %nproc=6
 Will use up to    6 processors via shared memory.
 %mem=4GB
 ------------------------------------------
 #PM7 IRC(CalcFC, MaxPoints=20, StepSize=5)
 ------------------------------------------
 1/10=4,18=10,26=1,38=1,39=5,42=20,44=3,172=1/1,23;
 2/12=2,17=6,18=5,29=1,40=1/2;
 3/5=2,25=1,41=4200000,71=2,140=1/1,2,3;
 4/35=1/1;
 5/5=2,35=1,38=5/2;
 8/6=4,10=90,11=11/1;
 11/6=1,8=1,9=11,15=111,16=1/1,2,10;
 10/6=1,13=1/2;
 6/7=2,8=2,9=2,10=2,28=1/1;
 7/10=1,18=20,25=1/1,2,3,16;
 1/10=4,18=10,26=1,39=5,42=20,44=3/23(2);
 2/29=1/2;
 99/5=20/99;
 2/29=1/2;
 3/5=2,25=1,41=4200000,71=2,135=20,140=1/1,2,3;
 4/5=5,16=3,35=1/1;
 5/5=2,35=1,38=5/2;
 8/6=4,10=90,11=11/1;
 11/6=1,8=1,9=11,15=111,16=1/1,2,10;
 10/6=1,13=1/2;
 7/10=1,18=20,25=1/1,2,3,16;
 1/18=10,26=1,39=5,42=20,44=3/23(-8);
 2/29=1/2;
 6/7=2,8=2,9=2,10=2,19=2,28=1/1;
 99/5=20,9=1/99;
 Leave Link    1 at Sat Dec 13 16:31:24 2025, MaxMem=   536870912 cpu:               0.0 elap:               0.2
 (Enter D:\G16W\l101.exe)
 ----------------------
 title: Me2NH_Smart_IRC
 ----------------------
 Symbolic Z-matrix:
 Charge =  0 Multiplicity = 1
 C                     3.3411    1.22661   0.21882 
 N                     2.79073   0.       -0.41502 
 C                     3.3411   -1.22661   0.21882 
 H                     4.43834   1.28944   0.15048 
 H                     2.91406   2.12352  -0.26567 
 H                     3.06403   1.2661    1.28786 
 H                     2.99416   0.       -1.42466 
 H                     2.91406  -2.12352  -0.26567 
 H                     4.43834  -1.28944   0.15048 
 H                     3.06403  -1.2661    1.28786 
 C                     0.92816   0.       -0.22915 
 I                    -1.72718   0.        0.02634 
 H                     0.78826   0.93633  -0.75885 
 H                     0.93961   0.        0.85529 
 H                     0.78826  -0.93633  -0.75885 
 
 ITRead=  0  0  0  0  0  0  0  0  0  0  0  0  0  0  0
 MicOpt= -1 -1 -1 -1 -1 -1 -1 -1 -1 -1 -1 -1 -1 -1 -1
 NAtoms=     15 NQM=       15 NQMF=       0 NMMI=      0 NMMIF=      0
                NMic=       0 NMicF=      0.
                    Isotopes and Nuclear Properties:
 (Nuclear quadrupole moments (NQMom) in fm**2, nuclear magnetic moments (NMagM)
  in nuclear magnetons)

  Atom         1           2           3           4           5           6           7           8           9          10
 IAtWgt=          12          14          12           1           1           1           1           1           1           1
 AtmWgt=  12.0000000  14.0030740  12.0000000   1.0078250   1.0078250   1.0078250   1.0078250   1.0078250   1.0078250   1.0078250
 NucSpn=           0           2           0           1           1           1           1           1           1           1
 AtZEff=   0.0000000   0.0000000   0.0000000   0.0000000   0.0000000   0.0000000   0.0000000   0.0000000   0.0000000   0.0000000
 NQMom=    0.0000000   2.0440000   0.0000000   0.0000000   0.0000000   0.0000000   0.0000000   0.0000000   0.0000000   0.0000000
 NMagM=    0.0000000   0.4037610   0.0000000   2.7928460   2.7928460   2.7928460   2.7928460   2.7928460   2.7928460   2.7928460
 AtZNuc=   6.0000000   7.0000000   6.0000000   1.0000000   1.0000000   1.0000000   1.0000000   1.0000000   1.0000000   1.0000000

  Atom        11          12          13          14          15
 IAtWgt=          12         127           1           1           1
 AtmWgt=  12.0000000 126.9004000   1.0078250   1.0078250   1.0078250
 NucSpn=           0           5           1           1           1
 AtZEff=   0.0000000   0.0000000   0.0000000   0.0000000   0.0000000
 NQMom=    0.0000000 -71.0000000   0.0000000   0.0000000   0.0000000
 NMagM=    0.0000000   2.8132800   2.7928460   2.7928460   2.7928460
 AtZNuc=   6.0000000  53.0000000   1.0000000   1.0000000   1.0000000
 Leave Link  101 at Sat Dec 13 16:31:25 2025, MaxMem=   536870912 cpu:               0.0 elap:               0.2
 (Enter D:\G16W\l123.exe)
 IRC-IRC-IRC-IRC-IRC-IRC-IRC-IRC-IRC-IRC-IRC-IRC-IRC-IRC-IRC-IRC-IRC-IRC
 ------------------------------------------------------------------------
 INPUT DATA FOR L123
 ------------------------------------------------------------------------
 GENERAL PARAMETERS:
 Follow reaction path in both directions.
 Maximum points per path      =  20
 Step size                    =   0.050 bohr
 Integration scheme           = HPC                                 
    Redo corrector integration= Yes                                 
    DWI Weight Power          =  2
    DWI will use Hessian update vectors when possible.
    Max correction cycles     =  20
 Initial Hessian              = CalcFC
 Hessian evaluation           = All updating
 Hessian updating method      = Bofill                              
 ------------------------------------------------------------------------
 IRC-IRC-IRC-IRC-IRC-IRC-IRC-IRC-IRC-IRC-IRC-IRC-IRC-IRC-IRC-IRC-IRC-IRC
 Leave Link  123 at Sat Dec 13 16:31:25 2025, MaxMem=   536870912 cpu:               0.0 elap:               0.1
 (Enter D:\G16W\l202.exe)
                          Input orientation:                          
 ---------------------------------------------------------------------
 Center     Atomic      Atomic             Coordinates (Angstroms)
 Number     Number       Type             X           Y           Z
 ---------------------------------------------------------------------
      1          6           0        3.341097    1.226609    0.218821
      2          7           0        2.790726    0.000000   -0.415015
      3          6           0        3.341097   -1.226609    0.218821
      4          1           0        4.438340    1.289444    0.150481
      5          1           0        2.914063    2.123521   -0.265667
      6          1           0        3.064032    1.266102    1.287864
      7          1           0        2.994157    0.000000   -1.424658
      8          1           0        2.914064   -2.123521   -0.265667
      9          1           0        4.438340   -1.289443    0.150481
     10          1           0        3.064032   -1.266102    1.287864
     11          6           0        0.928162    0.000000   -0.229151
     12         53           0       -1.727177    0.000000    0.026337
     13          1           0        0.788259    0.936332   -0.758851
     14          1           0        0.939610    0.000000    0.855288
     15          1           0        0.788259   -0.936332   -0.758852
 ---------------------------------------------------------------------
                    Distance matrix (angstroms):
                    1          2          3          4          5
     1  C    0.000000
     2  N    1.486347   0.000000
     3  C    2.453218   1.486347   0.000000
     4  H    1.101163   2.167276   2.745749   0.000000
     5  H    1.105232   2.132336   3.411811   1.786696   0.000000
     6  H    1.105069   2.139511   2.726394   1.784070   1.780763
     7  H    2.079894   1.029934   2.079894   2.495875   2.420541
     8  H    3.411811   2.132336   1.105232   3.760974   4.247042
     9  H    2.745748   2.167275   1.101163   2.578887   3.760974
    10  H    2.726394   2.139511   1.105069   3.116597   3.731688
    11  C    2.743630   1.871815   2.743630   3.758741   2.907658
    12  I    5.218143   4.539410   5.218143   6.300133   5.112310
    13  H    2.749015   2.237144   3.485848   3.778183   2.484289
    14  H    2.770704   2.245061   2.770704   3.794803   3.108753
    15  H    3.485849   2.237145   2.749016   4.370819   3.758321
                    6          7          8          9         10
     6  H    0.000000
     7  H    2.994273   0.000000
     8  H    3.731688   2.420541   0.000000
     9  H    3.116596   2.495875   1.786696   0.000000
    10  H    2.532204   2.994273   1.780763   1.784070   0.000000
    11  C    2.909689   2.386959   2.907659   3.758741   2.909689
    12  I    5.113722   4.939269   5.112311   6.300133   5.113722
    13  H    3.078463   2.487168   3.758321   4.370818   3.770796
    14  H    2.510638   3.069091   3.108754   3.794803   2.510638
    15  H    3.770796   2.487167   2.484290   3.778183   3.078463
                   11         12         13         14         15
    11  C    0.000000
    12  I    2.667602   0.000000
    13  H    1.084838   2.796544   0.000000
    14  H    1.084499   2.792653   1.872183   0.000000
    15  H    1.084838   2.796544   1.872664   1.872184   0.000000
 Symmetry turned off by external request.
 Stoichiometry    C3H10IN
 Framework group  CS[SG(CH2IN),X(C2H8)]
 Deg. of freedom    22
 Full point group                 CS      NOp   2
 Rotational constants (GHZ):           7.7412729           0.5989071           0.5706314
 Leave Link  202 at Sat Dec 13 16:31:25 2025, MaxMem=   536870912 cpu:               0.0 elap:               0.1
 (Enter D:\G16W\l301.exe)
 Standard basis: VSTO-6G (5D, 7F)
 Ernie: Thresh=  0.10000D-02 Tol=  0.10000D-05 Strict=F.
 EHB=         0.000000000 Number of Hydrogen Bonds=     0
  NNHCO=     0 NNPyr=     0 NCTC=     0               EPep=         0.000000000
    EC=        93.734437872  ECS=         2.170333066   EG=         0.390060428
   EHC=         0.000418994  EAt=       -31.688835444  AtH=         1.868030760
 EPDDG=         0.000000000  ECC=        96.295250361 EAtT=        33.556866204
  EHyb=         0.000000000
    35 basis functions,   216 primitive gaussians,    36 cartesian basis functions
    17 alpha electrons       17 beta electrons
       nuclear repulsion energy       129.8521165647 Hartrees.
 IExCor=    0 DFT=F Ex=HF Corr=None ExCW=0 ScaHFX=  1.000000
 ScaDFX=  1.000000  1.000000  1.000000  1.000000 ScalE2=  1.000000  1.000000
 IRadAn=      5 IRanWt=     -1 IRanGd=            0 ICorTp=0 IEmpDi=251
 Integral buffers will be    131072 words long.
 Regular integral format.
 Two-electron integral symmetry is turned off.
 R6Disp:  PM7 Dispersion energy=       -0.0020568445 Hartrees.
 Nuclear repulsion after empirical dispersion term =      129.8500597202 Hartrees.
 Leave Link  301 at Sat Dec 13 16:31:26 2025, MaxMem=   536870912 cpu:               1.0 elap:               0.1
 (Enter D:\G16W\l302.exe)
 Do NDO integrals.
 NPDir=0 NMtPBC=     1 NCelOv=     1 NCel=       1 NClECP=     1 NCelD=      1
         NCelK=      1 NCelE2=     1 NClLst=     1 CellRange=     0.0.
 One-electron integrals computed using PRISM.
 NBasis=    35 RedAO= F EigKep=  0.00D+00  NBF=    35
 NBsUse=    35 1.00D-04 EigRej=  0.00D+00 NBFU=    35
 Leave Link  302 at Sat Dec 13 16:31:26 2025, MaxMem=   536870912 cpu:               0.0 elap:               0.2
 (Enter D:\G16W\l303.exe)
 DipDrv:  MaxL=1.
 Leave Link  303 at Sat Dec 13 16:31:26 2025, MaxMem=   536870912 cpu:               0.0 elap:               0.1
 (Enter D:\G16W\l401.exe)
 Nonelectrostatic core Hamiltonian diagonalized for initial guess.
 JPrj=0 DoOrth=F DoCkMO=F.
 Leave Link  401 at Sat Dec 13 16:31:26 2025, MaxMem=   536870912 cpu:               0.0 elap:               0.1
 (Enter D:\G16W\l502.exe)
 Keep J ints in memory in canonical form, NReq=1851606.
 FoFCou: FMM=F IPFlag=           0 FMFlag=           0 FMFlg1=           0
         NFxFlg=           0 DoJE=F BraDBF=F KetDBF=F FulRan=T
         wScrn=  0.000000 ICntrl=       600 IOpCl=  2 I1Cent=           0 NGrid=           0
         NMat0=    1 NMatS0=     95 NMatT0=    0 NMatD0=    1 NMtDS0=    0 NMtDT0=    0
 Symmetry not used in FoFCou.
 Two-electron integral symmetry not used.
 Closed shell SCF:
 Using DIIS extrapolation, IDIIS=  1040.
 Overlap will be assumed to be unity.
 NGot=   536870912 LenX=   536803851 LenY=   536802114
 Requested convergence on RMS density matrix=1.00D-08 within 128 cycles.
 Requested convergence on MAX density matrix=1.00D-06.
 Requested convergence on             energy=1.00D-06.
 No special actions if energy rises.

 Cycle   1  Pass 1  IDiag  1:
 E= 0.539244942715925    
 DIIS: error= 4.88D-02 at cycle   1 NSaved=   1.
 NSaved= 1 IEnMin= 1 EnMin= 0.539244942715925     IErMin= 1 ErrMin= 4.88D-02
 ErrMax= 4.88D-02  0.00D+00 EMaxC= 1.00D-01 BMatC= 9.00D-02 BMatP= 9.00D-02
 IDIUse=3 WtCom= 5.12D-01 WtEn= 4.88D-01
 Coeff-Com:  0.100D+01
 Coeff-En:   0.100D+01
 Coeff:      0.100D+01
 GapD=    2.000 DampG=2.000 DampE=0.500 DampFc=1.0000 IDamp=-1.
 RMSDP=1.85D-02 MaxDP=1.47D-01              OVMax= 0.00D+00

 Cycle   2  Pass 1  IDiag  1:
 E= 0.155856055533519     Delta-E=       -0.383388887182 Rises=F Damp=F
 DIIS: error= 2.08D-02 at cycle   2 NSaved=   2.
 NSaved= 2 IEnMin= 2 EnMin= 0.155856055533519     IErMin= 2 ErrMin= 2.08D-02
 ErrMax= 2.08D-02  0.00D+00 EMaxC= 1.00D-01 BMatC= 1.86D-02 BMatP= 9.00D-02
 IDIUse=3 WtCom= 7.92D-01 WtEn= 2.08D-01
 Coeff-Com: -0.549D+00 0.155D+01
 Coeff-En:   0.000D+00 0.100D+01
 Coeff:     -0.435D+00 0.143D+01
 RMSDP=1.24D-02 MaxDP=1.23D-01 DE=-3.83D-01 OVMax= 0.00D+00

 Cycle   3  Pass 1  IDiag  1:
 E= 0.521153862746644E-01 Delta-E=       -0.103740669259 Rises=F Damp=F
 DIIS: error= 6.70D-03 at cycle   3 NSaved=   3.
 NSaved= 3 IEnMin= 3 EnMin= 0.521153862746644E-01 IErMin= 3 ErrMin= 6.70D-03
 ErrMax= 6.70D-03  0.00D+00 EMaxC= 1.00D-01 BMatC= 1.99D-03 BMatP= 1.86D-02
 IDIUse=3 WtCom= 9.33D-01 WtEn= 6.70D-02
 Coeff-Com:  0.281D-01-0.399D+00 0.137D+01
 Coeff-En:   0.000D+00 0.000D+00 0.100D+01
 Coeff:      0.262D-01-0.372D+00 0.135D+01
 RMSDP=4.78D-03 MaxDP=4.39D-02 DE=-1.04D-01 OVMax= 0.00D+00

 Cycle   4  Pass 1  IDiag  3:
 E= 0.403649818175609E-01 Delta-E=       -0.011750404457 Rises=F Damp=F
 DIIS: error= 1.71D-03 at cycle   4 NSaved=   4.
 NSaved= 4 IEnMin= 4 EnMin= 0.403649818175609E-01 IErMin= 4 ErrMin= 1.71D-03
 ErrMax= 1.71D-03  0.00D+00 EMaxC= 1.00D-01 BMatC= 1.53D-04 BMatP= 1.99D-03
 IDIUse=3 WtCom= 9.83D-01 WtEn= 1.71D-02
 Coeff-Com:  0.503D-01-0.106D+00-0.182D+00 0.124D+01
 Coeff-En:   0.000D+00 0.000D+00 0.000D+00 0.100D+01
 Coeff:      0.494D-01-0.104D+00-0.179D+00 0.123D+01
 Gap=     0.268 Goal=   None    Shift=    0.000
 RMSDP=1.34D-03 MaxDP=1.22D-02 DE=-1.18D-02 OVMax= 1.97D-02

 Cycle   5  Pass 1  IDiag  3:
 E= 0.394889271632337E-01 Delta-E=       -0.000876054654 Rises=F Damp=F
 DIIS: error= 4.65D-04 at cycle   5 NSaved=   5.
 NSaved= 5 IEnMin= 5 EnMin= 0.394889271632337E-01 IErMin= 5 ErrMin= 4.65D-04
 ErrMax= 4.65D-04  0.00D+00 EMaxC= 1.00D-01 BMatC= 1.29D-05 BMatP= 1.53D-04
 IDIUse=3 WtCom= 9.95D-01 WtEn= 4.65D-03
 Coeff-Com: -0.172D-01 0.471D-01 0.261D-01-0.595D+00 0.154D+01
 Coeff-En:   0.000D+00 0.000D+00 0.000D+00 0.000D+00 0.100D+01
 Coeff:     -0.171D-01 0.469D-01 0.260D-01-0.592D+00 0.154D+01
 Gap=     0.266 Goal=   None    Shift=    0.000
 RMSDP=4.24D-04 MaxDP=3.24D-03 DE=-8.76D-04 OVMax= 3.68D-03

 Cycle   6  Pass 1  IDiag  3:
 E= 0.394105686499699E-01 Delta-E=       -0.000078358513 Rises=F Damp=F
 DIIS: error= 7.00D-05 at cycle   6 NSaved=   6.
 NSaved= 6 IEnMin= 6 EnMin= 0.394105686499699E-01 IErMin= 6 ErrMin= 7.00D-05
 ErrMax= 7.00D-05  0.00D+00 EMaxC= 1.00D-01 BMatC= 3.83D-07 BMatP= 1.29D-05
 IDIUse=1 WtCom= 1.00D+00 WtEn= 0.00D+00
 Coeff-Com:  0.226D-02-0.540D-02-0.861D-02 0.125D+00-0.453D+00 0.134D+01
 Coeff:      0.226D-02-0.540D-02-0.861D-02 0.125D+00-0.453D+00 0.134D+01
 Gap=     0.267 Goal=   None    Shift=    0.000
 RMSDP=6.99D-05 MaxDP=5.50D-04 DE=-7.84D-05 OVMax= 5.58D-04

 Cycle   7  Pass 1  IDiag  3:
 E= 0.394083302389845E-01 Delta-E=       -0.000002238411 Rises=F Damp=F
 DIIS: error= 1.88D-05 at cycle   7 NSaved=   7.
 NSaved= 7 IEnMin= 7 EnMin= 0.394083302389845E-01 IErMin= 7 ErrMin= 1.88D-05
 ErrMax= 1.88D-05  0.00D+00 EMaxC= 1.00D-01 BMatC= 1.64D-08 BMatP= 3.83D-07
 IDIUse=1 WtCom= 1.00D+00 WtEn= 0.00D+00
 Coeff-Com: -0.292D-03 0.594D-03 0.337D-02-0.416D-01 0.171D+00-0.628D+00
 Coeff-Com:  0.149D+01
 Coeff:     -0.292D-03 0.594D-03 0.337D-02-0.416D-01 0.171D+00-0.628D+00
 Coeff:      0.149D+01
 Gap=     0.267 Goal=   None    Shift=    0.000
 RMSDP=1.47D-05 MaxDP=1.35D-04 DE=-2.24D-06 OVMax= 2.20D-04

 Cycle   8  Pass 1  IDiag  3:
 E= 0.394082299126239E-01 Delta-E=       -0.000000100326 Rises=F Damp=F
 DIIS: error= 4.35D-06 at cycle   8 NSaved=   8.
 NSaved= 8 IEnMin= 8 EnMin= 0.394082299126239E-01 IErMin= 8 ErrMin= 4.35D-06
 ErrMax= 4.35D-06  0.00D+00 EMaxC= 1.00D-01 BMatC= 8.28D-10 BMatP= 1.64D-08
 IDIUse=1 WtCom= 1.00D+00 WtEn= 0.00D+00
 Coeff-Com:  0.159D-04 0.942D-04-0.123D-02 0.107D-01-0.453D-01 0.184D+00
 Coeff-Com: -0.609D+00 0.146D+01
 Coeff:      0.159D-04 0.942D-04-0.123D-02 0.107D-01-0.453D-01 0.184D+00
 Coeff:     -0.609D+00 0.146D+01
 Gap=     0.267 Goal=   None    Shift=    0.000
 RMSDP=4.05D-06 MaxDP=4.43D-05 DE=-1.00D-07 OVMax= 7.29D-05

 Cycle   9  Pass 1  IDiag  3:
 E= 0.394082241458307E-01 Delta-E=       -0.000000005767 Rises=F Damp=F
 DIIS: error= 6.53D-07 at cycle   9 NSaved=   9.
 NSaved= 9 IEnMin= 9 EnMin= 0.394082241458307E-01 IErMin= 9 ErrMin= 6.53D-07
 ErrMax= 6.53D-07  0.00D+00 EMaxC= 1.00D-01 BMatC= 2.45D-11 BMatP= 8.28D-10
 IDIUse=1 WtCom= 1.00D+00 WtEn= 0.00D+00
 Coeff-Com:  0.940D-05-0.514D-04 0.229D-03-0.174D-02 0.765D-02-0.335D-01
 Coeff-Com:  0.133D+00-0.459D+00 0.135D+01
 Coeff:      0.940D-05-0.514D-04 0.229D-03-0.174D-02 0.765D-02-0.335D-01
 Coeff:      0.133D+00-0.459D+00 0.135D+01
 Gap=     0.267 Goal=   None    Shift=    0.000
 RMSDP=6.66D-07 MaxDP=6.73D-06 DE=-5.77D-09 OVMax= 1.11D-05

 Cycle  10  Pass 1  IDiag  3:
 E= 0.394082239840259E-01 Delta-E=       -0.000000000162 Rises=F Damp=F
 DIIS: error= 1.19D-07 at cycle  10 NSaved=  10.
 NSaved=10 IEnMin=10 EnMin= 0.394082239840259E-01 IErMin=10 ErrMin= 1.19D-07
 ErrMax= 1.19D-07  0.00D+00 EMaxC= 1.00D-01 BMatC= 9.21D-13 BMatP= 2.45D-11
 IDIUse=1 WtCom= 1.00D+00 WtEn= 0.00D+00
 Coeff-Com: -0.201D-05 0.115D-04-0.416D-04 0.282D-03-0.126D-02 0.585D-02
 Coeff-Com: -0.262D-01 0.109D+00-0.466D+00 0.138D+01
 Coeff:     -0.201D-05 0.115D-04-0.416D-04 0.282D-03-0.126D-02 0.585D-02
 Coeff:     -0.262D-01 0.109D+00-0.466D+00 0.138D+01
 Gap=     0.267 Goal=   None    Shift=    0.000
 RMSDP=1.15D-07 MaxDP=7.65D-07 DE=-1.62D-10 OVMax= 1.37D-06

 Cycle  11  Pass 1  IDiag  3:
 E= 0.394082239779436E-01 Delta-E=       -0.000000000006 Rises=F Damp=F
 DIIS: error= 2.08D-08 at cycle  11 NSaved=  11.
 NSaved=11 IEnMin=11 EnMin= 0.394082239779436E-01 IErMin=11 ErrMin= 2.08D-08
 ErrMax= 2.08D-08  0.00D+00 EMaxC= 1.00D-01 BMatC= 3.73D-14 BMatP= 9.21D-13
 IDIUse=1 WtCom= 1.00D+00 WtEn= 0.00D+00
 Coeff-Com:  0.341D-06-0.185D-05 0.474D-05-0.375D-04 0.188D-03-0.964D-03
 Coeff-Com:  0.497D-02-0.233D-01 0.121D+00-0.488D+00 0.139D+01
 Coeff:      0.341D-06-0.185D-05 0.474D-05-0.375D-04 0.188D-03-0.964D-03
 Coeff:      0.497D-02-0.233D-01 0.121D+00-0.488D+00 0.139D+01
 Gap=     0.267 Goal=   None    Shift=    0.000
 RMSDP=2.26D-08 MaxDP=2.37D-07 DE=-6.08D-12 OVMax= 2.88D-07

 Cycle  12  Pass 1  IDiag  3:
 E= 0.394082239781994E-01 Delta-E=        0.000000000000 Rises=F Damp=F
 DIIS: error= 8.66D-09 at cycle  12 NSaved=  12.
 NSaved=12 IEnMin=11 EnMin= 0.394082239779436E-01 IErMin=12 ErrMin= 8.66D-09
 ErrMax= 8.66D-09  0.00D+00 EMaxC= 1.00D-01 BMatC= 2.02D-15 BMatP= 3.73D-14
 IDIUse=1 WtCom= 1.00D+00 WtEn= 0.00D+00
 Coeff-Com: -0.293D-08 0.496D-07 0.323D-06-0.953D-07-0.570D-05 0.512D-04
 Coeff-Com: -0.398D-03 0.219D-02-0.154D-01 0.829D-01-0.417D+00 0.135D+01
 Coeff:     -0.293D-08 0.496D-07 0.323D-06-0.953D-07-0.570D-05 0.512D-04
 Coeff:     -0.398D-03 0.219D-02-0.154D-01 0.829D-01-0.417D+00 0.135D+01
 Gap=     0.267 Goal=   None    Shift=    0.000
 RMSDP=6.73D-09 MaxDP=1.01D-07 DE= 2.56D-13 OVMax= 1.22D-07

 Cycle  13  Pass 2  IDiag  1:
 SCF Done:  E(RPM7) =  0.394082239782E-01 A.U. after   13 cycles
            NFock= 12  Conv=0.67D-08     -V/T= 1.0007
 KE=-5.362873859224D+01 PE=-1.840598126983D+02 EE= 1.078778997944D+02
 Leave Link  502 at Sat Dec 13 16:31:27 2025, MaxMem=   536870912 cpu:               1.0 elap:               0.6
 (Enter D:\G16W\l801.exe)
 Range of M.O.s used for correlation:     1    35
 NBasis=    35 NAE=    17 NBE=    17 NFC=     0 NFV=     0
 NROrb=     35 NOA=    17 NOB=    17 NVA=    18 NVB=    18
 Leave Link  801 at Sat Dec 13 16:31:27 2025, MaxMem=   536870912 cpu:               0.0 elap:               0.1
 (Enter D:\G16W\l1101.exe)
 Using compressed storage, NAtomX=    15.
 Will process     16 centers per pass.
 R6Disp: Adding PM7 dispersion energy 1st derivatives to the gradient.
 Leave Link 1101 at Sat Dec 13 16:31:27 2025, MaxMem=   536870912 cpu:               0.0 elap:               0.1
 (Enter D:\G16W\l1102.exe)
 Symmetrizing basis deriv contribution to polar:
 IMax=3 JMax=2 DiffMx= 0.00D+00
 Leave Link 1102 at Sat Dec 13 16:31:27 2025, MaxMem=   536870912 cpu:               0.0 elap:               0.1
 (Enter D:\G16W\l1110.exe)
 Forming Gx(P) for the SCF density, NAtomX=    15.
 Integral derivatives from FoFJK, PRISM(SPDF).
 Do as many integral derivatives as possible in FoFJK.
 G2DrvN: MDV=     536810820.
 G2DrvN: will do    16 centers at a time, making    1 passes.
 Calling FoFCou, ICntrl=  3107 FMM=F I1Cent=   0 AccDes= 0.00D+00.
 FoFJK:  IHMeth=43 ICntrl=    3107 DoSepK=F KAlg= 0 I1Cent=           0 FoldK=F
 IRaf=         0 NMat=       1 IRICut=       1 DoRegI=T DoRafI=F ISym2E= 0 IDoP0=3 IntGTp=3.
 FoFCou: FMM=F IPFlag=           0 FMFlag=      100000 FMFlg1=           0
         NFxFlg=           0 DoJE=F BraDBF=F KetDBF=F FulRan=T
         wScrn=  0.000000 ICntrl=      3107 IOpCl=  0 I1Cent=           0 NGrid=           0
         NMat0=    1 NMatS0=      1 NMatT0=    0 NMatD0=    1 NMtDS0=    0 NMtDT0=    0
 Symmetry not used in FoFCou.
 End of G2Drv F.D. properties file   721 does not exist.
 End of G2Drv F.D. properties file   722 does not exist.
 End of G2Drv F.D. properties file   788 does not exist.
 Leave Link 1110 at Sat Dec 13 16:31:27 2025, MaxMem=   536870912 cpu:               0.0 elap:               0.1
 (Enter D:\G16W\l1002.exe)
 Minotr:  Closed shell wavefunction.
          IDoAtm=111111111111111
          Direct CPHF calculation.
          Differentiating once with respect to nuclear coordinates.
          Electric field/nuclear overlap derivatives assumed to be zero.
          Requested convergence is 1.0D-08 RMS, and 1.0D-07 maximum.
          NewPWx=T KeepS1=F KeepF1=F KeepIn=T MapXYZ=F SortEE=F KeepMc=T.
 Keep J ints in memory in canonical form, NReq=1853068.
 FoFCou: FMM=F IPFlag=           0 FMFlag=           0 FMFlg1=           0
         NFxFlg=           0 DoJE=F BraDBF=F KetDBF=F FulRan=T
         wScrn=  0.000000 ICntrl=       600 IOpCl=  2 I1Cent=           0 NGrid=           0
         NMat0=    1 NMatS0=     95 NMatT0=    0 NMatD0=    1 NMtDS0=    0 NMtDT0=    0
 Symmetry not used in FoFCou.
 Two-electron integral symmetry not used.
          MDV=     536870912 using IRadAn=       1.
          Solving linear equations separately, MaxMat=       0.
          There are    48 degrees of freedom in the 1st order CPHF.  IDoFFX=5 NUNeed=    48.
 LinEq1:  Iter=  0 NonCon=    45 RMS=2.19D-02 Max=2.41D-01 NDo=    45
 AX will form    48 AO Fock derivatives at one time.
 LinEq1:  Iter=  1 NonCon=    45 RMS=2.28D-03 Max=1.54D-02 NDo=    48
 LinEq1:  Iter=  2 NonCon=    45 RMS=3.21D-04 Max=2.57D-03 NDo=    48
 LinEq1:  Iter=  3 NonCon=    45 RMS=6.30D-05 Max=4.06D-04 NDo=    48
 LinEq1:  Iter=  4 NonCon=    45 RMS=1.32D-05 Max=6.96D-05 NDo=    48
 LinEq1:  Iter=  5 NonCon=    45 RMS=1.76D-06 Max=9.47D-06 NDo=    48
 LinEq1:  Iter=  6 NonCon=    45 RMS=2.33D-07 Max=1.64D-06 NDo=    48
 LinEq1:  Iter=  7 NonCon=    16 RMS=3.20D-08 Max=2.52D-07 NDo=    48
 LinEq1:  Iter=  8 NonCon=     0 RMS=3.95D-09 Max=2.52D-08 NDo=    48
 Linear equations converged to 1.000D-08 1.000D-07 after     8 iterations.
 End of Minotr F.D. properties file   721 does not exist.
 End of Minotr F.D. properties file   722 does not exist.
 End of Minotr F.D. properties file   788 does not exist.
 Leave Link 1002 at Sat Dec 13 16:31:28 2025, MaxMem=   536870912 cpu:               1.0 elap:               0.3
 (Enter D:\G16W\l601.exe)
 Copying SCF densities to generalized density rwf, IOpCl= 0 IROHF=0.

 **********************************************************************

            Population analysis using the SCF density.

 **********************************************************************

 Alpha  occ. eigenvalues --   -1.38689  -0.96666  -0.94498  -0.90680  -0.71528
 Alpha  occ. eigenvalues --   -0.70452  -0.64394  -0.62549  -0.56493  -0.55584
 Alpha  occ. eigenvalues --   -0.54657  -0.53711  -0.53191  -0.47337  -0.28890
 Alpha  occ. eigenvalues --   -0.28660  -0.28659
 Alpha virt. eigenvalues --   -0.01996   0.04878   0.09249   0.12837   0.14148
 Alpha virt. eigenvalues --    0.14213   0.14609   0.16110   0.17354   0.17796
 Alpha virt. eigenvalues --    0.18311   0.18315   0.18557   4.82677   4.82677
 Alpha virt. eigenvalues --    4.82836   4.83650   4.83651
          Condensed to atoms (all electrons):
               1          2          3          4          5          6
     1  C    4.312898   0.000000   0.000000   0.000000   0.000000   0.000000
     2  N    0.000000   5.337758   0.000000   0.000000   0.000000   0.000000
     3  C    0.000000   0.000000   4.312898   0.000000   0.000000   0.000000
     4  H    0.000000   0.000000   0.000000   0.851149   0.000000   0.000000
     5  H    0.000000   0.000000   0.000000   0.000000   0.829383   0.000000
     6  H    0.000000   0.000000   0.000000   0.000000   0.000000   0.826798
     7  H    0.000000   0.000000   0.000000   0.000000   0.000000   0.000000
     8  H    0.000000   0.000000   0.000000   0.000000   0.000000   0.000000
     9  H    0.000000   0.000000   0.000000   0.000000   0.000000   0.000000
    10  H    0.000000   0.000000   0.000000   0.000000   0.000000   0.000000
    11  C    0.000000   0.000000   0.000000   0.000000   0.000000   0.000000
    12  I    0.000000   0.000000   0.000000   0.000000   0.000000   0.000000
    13  H    0.000000   0.000000   0.000000   0.000000   0.000000   0.000000
    14  H    0.000000   0.000000   0.000000   0.000000   0.000000   0.000000
    15  H    0.000000   0.000000   0.000000   0.000000   0.000000   0.000000
               7          8          9         10         11         12
     1  C    0.000000   0.000000   0.000000   0.000000   0.000000   0.000000
     2  N    0.000000   0.000000   0.000000   0.000000   0.000000   0.000000
     3  C    0.000000   0.000000   0.000000   0.000000   0.000000   0.000000
     4  H    0.000000   0.000000   0.000000   0.000000   0.000000   0.000000
     5  H    0.000000   0.000000   0.000000   0.000000   0.000000   0.000000
     6  H    0.000000   0.000000   0.000000   0.000000   0.000000   0.000000
     7  H    0.728305   0.000000   0.000000   0.000000   0.000000   0.000000
     8  H    0.000000   0.829383   0.000000   0.000000   0.000000   0.000000
     9  H    0.000000   0.000000   0.851149   0.000000   0.000000   0.000000
    10  H    0.000000   0.000000   0.000000   0.826798   0.000000   0.000000
    11  C    0.000000   0.000000   0.000000   0.000000   4.044925   0.000000
    12  I    0.000000   0.000000   0.000000   0.000000   0.000000   7.704901
    13  H    0.000000   0.000000   0.000000   0.000000   0.000000   0.000000
    14  H    0.000000   0.000000   0.000000   0.000000   0.000000   0.000000
    15  H    0.000000   0.000000   0.000000   0.000000   0.000000   0.000000
              13         14         15
     1  C    0.000000   0.000000   0.000000
     2  N    0.000000   0.000000   0.000000
     3  C    0.000000   0.000000   0.000000
     4  H    0.000000   0.000000   0.000000
     5  H    0.000000   0.000000   0.000000
     6  H    0.000000   0.000000   0.000000
     7  H    0.000000   0.000000   0.000000
     8  H    0.000000   0.000000   0.000000
     9  H    0.000000   0.000000   0.000000
    10  H    0.000000   0.000000   0.000000
    11  C    0.000000   0.000000   0.000000
    12  I    0.000000   0.000000   0.000000
    13  H    0.848809   0.000000   0.000000
    14  H    0.000000   0.846039   0.000000
    15  H    0.000000   0.000000   0.848809
 Mulliken charges:
               1
     1  C   -0.312898
     2  N   -0.337758
     3  C   -0.312898
     4  H    0.148851
     5  H    0.170617
     6  H    0.173202
     7  H    0.271695
     8  H    0.170617
     9  H    0.148851
    10  H    0.173202
    11  C   -0.044925
    12  I   -0.704901
    13  H    0.151191
    14  H    0.153961
    15  H    0.151191
 Sum of Mulliken charges =   0.00000
 Mulliken charges with hydrogens summed into heavy atoms:
               1
     1  C    0.179772
     2  N   -0.066063
     3  C    0.179772
    11  C    0.411419
    12  I   -0.704901
 APT charges:
               1
     1  C   -0.312898
     2  N   -0.337758
     3  C   -0.312898
     4  H    0.148851
     5  H    0.170617
     6  H    0.173202
     7  H    0.271695
     8  H    0.170617
     9  H    0.148851
    10  H    0.173202
    11  C   -0.044925
    12  I   -0.704901
    13  H    0.151191
    14  H    0.153961
    15  H    0.151191
 Sum of APT charges =   0.00000
 APT charges with hydrogens summed into heavy atoms:
               1
     1  C    0.179772
     2  N   -0.066063
     3  C    0.179772
    11  C    0.411419
    12  I   -0.704901
 Charge=              0.0000 electrons
 Dipole moment (field-independent basis, Debye):
    X=             13.6634    Y=              0.0000    Z=             -0.8286  Tot=             13.6885
 N-N= 1.298500597202D+02 E-N=-1.840598126823D+02  KE=-5.362873859224D+01
  Exact polarizability:   0.000   0.000   0.000   0.000   0.000   0.000
 Approx polarizability:  88.134   0.000  22.089  -5.161   0.000  20.025
 Leave Link  601 at Sat Dec 13 16:31:28 2025, MaxMem=   536870912 cpu:               0.0 elap:               0.1
 (Enter D:\G16W\l701.exe)
 ... and contract with generalized density number  0.
 Compute integral second derivatives.
 R6Disp: Adding PM7 dispersion energy 2nd derivatives to the Hessian.
 Leave Link  701 at Sat Dec 13 16:31:28 2025, MaxMem=   536870912 cpu:               0.0 elap:               0.2
 (Enter D:\G16W\l702.exe)
 L702 exits ... SP integral derivatives will be done elsewhere.
 Leave Link  702 at Sat Dec 13 16:31:28 2025, MaxMem=   536870912 cpu:               0.0 elap:               0.1
 (Enter D:\G16W\l703.exe)
 Integral derivatives from FoFJK, PRISM(SPDF).
 Compute integral second derivatives, UseDBF=F ICtDFT=           0.
 Calling FoFJK, ICntrl=    100147 FMM=F ISym2X=0 I1Cent= 0 IOpClX= 0 NMat=1 NMatS=1 NMatT=0.
 FoFJK:  IHMeth=43 ICntrl=  100147 DoSepK=F KAlg= 0 I1Cent=           0 FoldK=F
 IRaf=         0 NMat=       1 IRICut=       1 DoRegI=T DoRafI=F ISym2E= 0 IDoP0=3 IntGTp=3.
 FoFCou: FMM=F IPFlag=           0 FMFlag=      100000 FMFlg1=         800
         NFxFlg=           0 DoJE=F BraDBF=F KetDBF=F FulRan=T
         wScrn=  0.000000 ICntrl=    100147 IOpCl=  0 I1Cent=           0 NGrid=           0
         NMat0=    1 NMatS0=      1 NMatT0=    0 NMatD0=    1 NMtDS0=    0 NMtDT0=    0
 Symmetry not used in FoFCou.
 Leave Link  703 at Sat Dec 13 16:31:29 2025, MaxMem=   536870912 cpu:               1.0 elap:               0.1
 (Enter D:\G16W\l716.exe)
 Dipole        = 5.37559083D+00 2.65120439D-07-3.26009541D-01
 Polarizability= 0.00000000D+00 0.00000000D+00 0.00000000D+00
                 0.00000000D+00 0.00000000D+00 0.00000000D+00
 -------------------------------------------------------------------
 Center     Atomic                   Forces (Hartrees/Bohr)
 Number     Number              X              Y              Z
 -------------------------------------------------------------------
      1        6          -0.000000250    0.000000109    0.000000190
      2        7           0.000000068    0.000000011   -0.000000197
      3        6          -0.000000130    0.000000067    0.000000247
      4        1           0.000000122    0.000000011   -0.000000025
      5        1           0.000000052   -0.000000018    0.000000067
      6        1           0.000000050    0.000000040   -0.000000178
      7        1           0.000000148    0.000000000   -0.000000019
      8        1          -0.000000044   -0.000000099   -0.000000004
      9        1           0.000000188   -0.000000068    0.000000007
     10        1           0.000000036   -0.000000053   -0.000000180
     11        6          -0.000000511   -0.000000143   -0.000000099
     12       53          -0.000000262   -0.000000004    0.000000095
     13        1           0.000000196    0.000000327   -0.000000188
     14        1           0.000000117   -0.000000040    0.000000319
     15        1           0.000000220   -0.000000140   -0.000000034
 -------------------------------------------------------------------
 Cartesian Forces:  Max     0.000000511 RMS     0.000000159
 Z-matrix is all fixed cartesians, so copy forces.
 Leave Link  716 at Sat Dec 13 16:31:29 2025, MaxMem=   536870912 cpu:               0.0 elap:               0.1
 (Enter D:\G16W\l123.exe)
 IRC-IRC-IRC-IRC-IRC-IRC-IRC-IRC-IRC-IRC-IRC-IRC-IRC-IRC-IRC-IRC-IRC-IRC
          ******** Start new reaction path calculation ********
 Current Structure is TS -> form Hessian eigenvectors.
                            Diagonalizing Hessian.
 Supplied step size of   0.0500 bohr.
    Integration on MW PES will use step size of   0.1615 sqrt(amu)*bohr.
 Point Number:   0          Path Number:   1
 Calculating another point on the path.
 Point Number  1 in FORWARD path direction.
 Using LQA Reaction Path Following.
 IRC-IRC-IRC-IRC-IRC-IRC-IRC-IRC-IRC-IRC-IRC-IRC-IRC-IRC-IRC-IRC-IRC-IRC
 Leave Link  123 at Sat Dec 13 16:31:29 2025, MaxMem=   536870912 cpu:               0.0 elap:               0.1
 (Enter D:\G16W\l202.exe)
                          Input orientation:                          
 ---------------------------------------------------------------------
 Center     Atomic      Atomic             Coordinates (Angstroms)
 Number     Number       Type             X           Y           Z
 ---------------------------------------------------------------------
      1          6           0        3.675893    1.226736    0.217344
      2          7           0        3.130121    0.000000   -0.417426
      3          6           0        3.675893   -1.226736    0.217344
      4          1           0        4.773010    1.293285    0.151378
      5          1           0        3.246887    2.122027   -0.267878
      6          1           0        3.396499    1.264650    1.285591
      7          1           0        3.334067    0.000000   -1.425800
      8          1           0        3.246888   -2.122027   -0.267878
      9          1           0        4.773010   -1.293284    0.151378
     10          1           0        3.396499   -1.264650    1.285591
     11          6           0        1.238006    0.000000   -0.229013
     12         53           0       -1.393424    0.000000    0.024677
     13          1           0        1.122083    0.936967   -0.761338
     14          1           0        1.273910    0.000000    0.854010
     15          1           0        1.122083   -0.936967   -0.761339
 ---------------------------------------------------------------------
                    Distance matrix (angstroms):
                    1          2          3          4          5
     1  C    0.000000
     2  N    1.485153   0.000000
     3  C    2.453472   1.485153   0.000000
     4  H    1.101112   2.166844   2.749277   0.000000
     5  H    1.105003   2.130492   3.410821   1.786516   0.000000
     6  H    1.104831   2.137888   2.725108   1.783828   1.780659
     7  H    2.078858   1.028792   2.078858   2.496124   2.418963
     8  H    3.410821   2.130492   1.105003   3.764197   4.244054
     9  H    2.749276   2.166843   1.101112   2.586569   3.764197
    10  H    2.725108   2.137888   1.104831   3.118374   3.728972
    11  C    2.765395   1.901472   2.765395   3.783324   2.922347
    12  I    5.219193   4.545097   5.219193   6.301869   5.110878
    13  H    2.750224   2.242409   3.487316   3.780117   2.482471
    14  H    2.771236   2.249904   2.771236   3.796048   3.107132
    15  H    3.487316   2.242409   2.750224   4.374511   3.757092
                    6          7          8          9         10
     6  H    0.000000
     7  H    2.992471   0.000000
     8  H    3.728972   2.418963   0.000000
     9  H    3.118373   2.496124   1.786516   0.000000
    10  H    2.529300   2.992471   1.780659   1.783828   0.000000
    11  C    2.924458   2.413664   2.922348   3.783323   2.924458
    12  I    5.112006   4.945003   5.110879   6.301868   5.112006
    13  H    3.077379   2.492447   3.757092   4.374510   3.769616
    14  H    2.508184   3.072748   3.107133   3.796048   2.508184
    15  H    3.769616   2.492446   2.482473   3.780117   3.077380
                   11         12         13         14         15
    11  C    0.000000
    12  I    2.643630   0.000000
    13  H    1.083843   2.797052   0.000000
    14  H    1.083617   2.793288   1.873581   0.000000
    15  H    1.083843   2.797052   1.873933   1.873582   0.000000
 Symmetry turned off by external request.
 Stoichiometry    C3H10IN
 Framework group  C1[X(C3H10IN)]
 Deg. of freedom    39
 Full point group                 C1      NOp   1
 Rotational constants (GHZ):           7.7398968           0.5989119           0.5706308
 Leave Link  202 at Sat Dec 13 16:31:29 2025, MaxMem=   536870912 cpu:               0.0 elap:               0.1
 (Enter D:\G16W\l301.exe)
 Standard basis: VSTO-6G (5D, 7F)
 Ernie: Thresh=  0.10000D-02 Tol=  0.10000D-05 Strict=F.
 EHB=         0.000000000 Number of Hydrogen Bonds=     0
  NNHCO=     0 NNPyr=     0 NCTC=     0               EPep=         0.000000000
    EC=        93.648227572  ECS=         2.171424484   EG=         0.388460624
   EHC=         0.000422184  EAt=       -31.688835444  AtH=         1.868030760
 EPDDG=         0.000000000  ECC=        96.208534865 EAtT=        33.556866204
  EHyb=         0.000000000
    35 basis functions,   216 primitive gaussians,    36 cartesian basis functions
    17 alpha electrons       17 beta electrons
       nuclear repulsion energy       129.7654010687 Hartrees.
 IExCor=    0 DFT=F Ex=HF Corr=None ExCW=0 ScaHFX=  1.000000
 ScaDFX=  1.000000  1.000000  1.000000  1.000000 ScalE2=  1.000000  1.000000
 IRadAn=      5 IRanWt=     -1 IRanGd=            0 ICorTp=0 IEmpDi=251
 Integral buffers will be    131072 words long.
 Regular integral format.
 Two-electron integral symmetry is turned off.
 R6Disp:  PM7 Dispersion energy=       -0.0020610684 Hartrees.
 Nuclear repulsion after empirical dispersion term =      129.7633400003 Hartrees.
 Leave Link  301 at Sat Dec 13 16:31:29 2025, MaxMem=   536870912 cpu:               0.0 elap:               0.1
 (Enter D:\G16W\l302.exe)
 Do NDO integrals.
 NPDir=0 NMtPBC=     1 NCelOv=     1 NCel=       1 NClECP=     1 NCelD=      1
         NCelK=      1 NCelE2=     1 NClLst=     1 CellRange=     0.0.
 One-electron integrals computed using PRISM.
 NBasis=    35 RedAO= F EigKep=  0.00D+00  NBF=    35
 NBsUse=    35 1.00D-04 EigRej=  0.00D+00 NBFU=    35
 Leave Link  302 at Sat Dec 13 16:31:29 2025, MaxMem=   536870912 cpu:               0.0 elap:               0.2
 (Enter D:\G16W\l303.exe)
 DipDrv:  MaxL=1.
 Leave Link  303 at Sat Dec 13 16:31:29 2025, MaxMem=   536870912 cpu:               0.0 elap:               0.1
 (Enter D:\G16W\l401.exe)
 Initial guess from the checkpoint file:  ".\Gau-26872.chk"
 B after Tr=     0.628830    0.000000   -0.002927
         Rot=    1.000000    0.000000    0.000012    0.000000 Ang=   0.00 deg.
 Guess basis will be translated and rotated to current coordinates.
 JPrj=0 DoOrth=T DoCkMO=T.
 Leave Link  401 at Sat Dec 13 16:31:30 2025, MaxMem=   536870912 cpu:               0.0 elap:               0.2
 (Enter D:\G16W\l502.exe)
 Keep J ints in memory in canonical form, NReq=1851606.
 FoFCou: FMM=F IPFlag=           0 FMFlag=           0 FMFlg1=           0
         NFxFlg=           0 DoJE=F BraDBF=F KetDBF=F FulRan=T
         wScrn=  0.000000 ICntrl=       600 IOpCl=  2 I1Cent=           0 NGrid=           0
         NMat0=    1 NMatS0=     95 NMatT0=    0 NMatD0=    1 NMtDS0=    0 NMtDT0=    0
 Symmetry not used in FoFCou.
 Two-electron integral symmetry not used.
 Closed shell SCF:
 Using DIIS extrapolation, IDIIS=  1040.
 Overlap will be assumed to be unity.
 NGot=   536870912 LenX=   536803851 LenY=   536802114
 Requested convergence on RMS density matrix=1.00D-08 within 128 cycles.
 Requested convergence on MAX density matrix=1.00D-06.
 Requested convergence on             energy=1.00D-06.
 No special actions if energy rises.

 Cycle   1  Pass 1  IDiag  1:
 E= 0.398703999647694E-01
 DIIS: error= 2.77D-03 at cycle   1 NSaved=   1.
 NSaved= 1 IEnMin= 1 EnMin= 0.398703999647694E-01 IErMin= 1 ErrMin= 2.77D-03
 ErrMax= 2.77D-03  0.00D+00 EMaxC= 1.00D-01 BMatC= 1.24D-04 BMatP= 1.24D-04
 IDIUse=3 WtCom= 9.72D-01 WtEn= 2.77D-02
 Coeff-Com:  0.100D+01
 Coeff-En:   0.100D+01
 Coeff:      0.100D+01
 GapD=    2.000 DampG=2.000 DampE=1.000 DampFc=2.0000 IDamp=-1.
 RMSDP=7.79D-04 MaxDP=8.92D-03              OVMax= 0.00D+00

 Cycle   2  Pass 1  IDiag  3:
 E= 0.393601262143193E-01 Delta-E=       -0.000510273750 Rises=F Damp=F
 DIIS: error= 1.07D-03 at cycle   2 NSaved=   2.
 NSaved= 2 IEnMin= 2 EnMin= 0.393601262143193E-01 IErMin= 2 ErrMin= 1.07D-03
 ErrMax= 1.07D-03  0.00D+00 EMaxC= 1.00D-01 BMatC= 1.89D-05 BMatP= 1.24D-04
 IDIUse=3 WtCom= 9.89D-01 WtEn= 1.07D-02
 Coeff-Com: -0.441D+00 0.144D+01
 Coeff-En:   0.000D+00 0.100D+01
 Coeff:     -0.436D+00 0.144D+01
 Gap=     0.270 Goal=   None    Shift=    0.000
 RMSDP=4.93D-04 MaxDP=5.85D-03 DE=-5.10D-04 OVMax= 7.89D-03

 Cycle   3  Pass 1  IDiag  3:
 E= 0.392455270562664E-01 Delta-E=       -0.000114599158 Rises=F Damp=F
 DIIS: error= 1.74D-04 at cycle   3 NSaved=   3.
 NSaved= 3 IEnMin= 3 EnMin= 0.392455270562664E-01 IErMin= 3 ErrMin= 1.74D-04
 ErrMax= 1.74D-04  0.00D+00 EMaxC= 1.00D-01 BMatC= 1.16D-06 BMatP= 1.89D-05
 IDIUse=3 WtCom= 9.98D-01 WtEn= 1.74D-03
 Coeff-Com:  0.521D-01-0.331D+00 0.128D+01
 Coeff-En:   0.000D+00 0.000D+00 0.100D+01
 Coeff:      0.520D-01-0.331D+00 0.128D+01
 Gap=     0.271 Goal=   None    Shift=    0.000
 RMSDP=1.46D-04 MaxDP=1.82D-03 DE=-1.15D-04 OVMax= 2.49D-03

 Cycle   4  Pass 1  IDiag  3:
 E= 0.392365855524872E-01 Delta-E=       -0.000008941504 Rises=F Damp=F
 DIIS: error= 6.28D-05 at cycle   4 NSaved=   4.
 NSaved= 4 IEnMin= 4 EnMin= 0.392365855524872E-01 IErMin= 4 ErrMin= 6.28D-05
 ErrMax= 6.28D-05  0.00D+00 EMaxC= 1.00D-01 BMatC= 1.04D-07 BMatP= 1.16D-06
 IDIUse=1 WtCom= 1.00D+00 WtEn= 0.00D+00
 Coeff-Com:  0.188D-01-0.346D-01-0.313D+00 0.133D+01
 Coeff:      0.188D-01-0.346D-01-0.313D+00 0.133D+01
 Gap=     0.271 Goal=   None    Shift=    0.000
 RMSDP=5.13D-05 MaxDP=6.76D-04 DE=-8.94D-06 OVMax= 9.58D-04

 Cycle   5  Pass 1  IDiag  3:
 E= 0.392357414947355E-01 Delta-E=       -0.000000844058 Rises=F Damp=F
 DIIS: error= 1.30D-05 at cycle   5 NSaved=   5.
 NSaved= 5 IEnMin= 5 EnMin= 0.392357414947355E-01 IErMin= 5 ErrMin= 1.30D-05
 ErrMax= 1.30D-05  0.00D+00 EMaxC= 1.00D-01 BMatC= 6.26D-09 BMatP= 1.04D-07
 IDIUse=1 WtCom= 1.00D+00 WtEn= 0.00D+00
 Coeff-Com: -0.107D-01 0.390D-01 0.132D-01-0.460D+00 0.142D+01
 Coeff:     -0.107D-01 0.390D-01 0.132D-01-0.460D+00 0.142D+01
 Gap=     0.271 Goal=   None    Shift=    0.000
 RMSDP=1.12D-05 MaxDP=1.50D-04 DE=-8.44D-07 OVMax= 2.15D-04

 Cycle   6  Pass 1  IDiag  3:
 E= 0.392357008714725E-01 Delta-E=       -0.000000040623 Rises=F Damp=F
 DIIS: error= 2.64D-06 at cycle   6 NSaved=   6.
 NSaved= 6 IEnMin= 6 EnMin= 0.392357008714725E-01 IErMin= 6 ErrMin= 2.64D-06
 ErrMax= 2.64D-06  0.00D+00 EMaxC= 1.00D-01 BMatC= 3.11D-10 BMatP= 6.26D-09
 IDIUse=1 WtCom= 1.00D+00 WtEn= 0.00D+00
 Coeff-Com:  0.457D-02-0.183D-01 0.860D-02 0.164D+00-0.674D+00 0.152D+01
 Coeff:      0.457D-02-0.183D-01 0.860D-02 0.164D+00-0.674D+00 0.152D+01
 Gap=     0.271 Goal=   None    Shift=    0.000
 RMSDP=1.82D-06 MaxDP=1.57D-05 DE=-4.06D-08 OVMax= 1.91D-05

 Cycle   7  Pass 1  IDiag  3:
 E= 0.392356991680458E-01 Delta-E=       -0.000000001703 Rises=F Damp=F
 DIIS: error= 6.41D-07 at cycle   7 NSaved=   7.
 NSaved= 7 IEnMin= 7 EnMin= 0.392356991680458E-01 IErMin= 7 ErrMin= 6.41D-07
 ErrMax= 6.41D-07  0.00D+00 EMaxC= 1.00D-01 BMatC= 1.83D-11 BMatP= 3.11D-10
 IDIUse=1 WtCom= 1.00D+00 WtEn= 0.00D+00
 Coeff-Com: -0.775D-03 0.336D-02-0.333D-02-0.229D-01 0.127D+00-0.507D+00
 Coeff-Com:  0.140D+01
 Coeff:     -0.775D-03 0.336D-02-0.333D-02-0.229D-01 0.127D+00-0.507D+00
 Coeff:      0.140D+01
 Gap=     0.271 Goal=   None    Shift=    0.000
 RMSDP=4.44D-07 MaxDP=4.12D-06 DE=-1.70D-09 OVMax= 3.39D-06

 Cycle   8  Pass 1  IDiag  3:
 E= 0.392356990619760E-01 Delta-E=       -0.000000000106 Rises=F Damp=F
 DIIS: error= 1.08D-07 at cycle   8 NSaved=   8.
 NSaved= 8 IEnMin= 8 EnMin= 0.392356990619760E-01 IErMin= 8 ErrMin= 1.08D-07
 ErrMax= 1.08D-07  0.00D+00 EMaxC= 1.00D-01 BMatC= 1.00D-12 BMatP= 1.83D-11
 IDIUse=1 WtCom= 1.00D+00 WtEn= 0.00D+00
 Coeff-Com:  0.143D-03-0.694D-03 0.894D-03 0.401D-02-0.291D-01 0.148D+00
 Coeff-Com: -0.589D+00 0.147D+01
 Coeff:      0.143D-03-0.694D-03 0.894D-03 0.401D-02-0.291D-01 0.148D+00
 Coeff:     -0.589D+00 0.147D+01
 Gap=     0.271 Goal=   None    Shift=    0.000
 RMSDP=1.15D-07 MaxDP=8.30D-07 DE=-1.06D-10 OVMax= 9.65D-07

 Cycle   9  Pass 1  IDiag  3:
 E= 0.392356990559222E-01 Delta-E=       -0.000000000006 Rises=F Damp=F
 DIIS: error= 3.72D-08 at cycle   9 NSaved=   9.
 NSaved= 9 IEnMin= 9 EnMin= 0.392356990559222E-01 IErMin= 9 ErrMin= 3.72D-08
 ErrMax= 3.72D-08  0.00D+00 EMaxC= 1.00D-01 BMatC= 4.89D-14 BMatP= 1.00D-12
 IDIUse=1 WtCom= 1.00D+00 WtEn= 0.00D+00
 Coeff-Com: -0.510D-05 0.440D-04-0.753D-04-0.185D-03 0.327D-02-0.263D-01
 Coeff-Com:  0.146D+00-0.554D+00 0.143D+01
 Coeff:     -0.510D-05 0.440D-04-0.753D-04-0.185D-03 0.327D-02-0.263D-01
 Coeff:      0.146D+00-0.554D+00 0.143D+01
 Gap=     0.271 Goal=   None    Shift=    0.000
 RMSDP=2.79D-08 MaxDP=3.49D-07 DE=-6.05D-12 OVMax= 3.24D-07

 Cycle  10  Pass 1  IDiag  3:
 E= 0.392356990558369E-01 Delta-E=        0.000000000000 Rises=F Damp=F
 DIIS: error= 6.01D-09 at cycle  10 NSaved=  10.
 NSaved=10 IEnMin=10 EnMin= 0.392356990558369E-01 IErMin=10 ErrMin= 6.01D-09
 ErrMax= 6.01D-09  0.00D+00 EMaxC= 1.00D-01 BMatC= 1.42D-15 BMatP= 4.89D-14
 IDIUse=1 WtCom= 1.00D+00 WtEn= 0.00D+00
 Coeff-Com: -0.152D-05 0.474D-05 0.628D-05-0.786D-04 0.154D-03 0.609D-03
 Coeff-Com: -0.879D-02 0.568D-01-0.292D+00 0.124D+01
 Coeff:     -0.152D-05 0.474D-05 0.628D-05-0.786D-04 0.154D-03 0.609D-03
 Coeff:     -0.879D-02 0.568D-01-0.292D+00 0.124D+01
 Gap=     0.271 Goal=   None    Shift=    0.000
 RMSDP=4.58D-09 MaxDP=5.88D-08 DE=-8.53D-14 OVMax= 5.95D-08

 Cycle  11  Pass 2  IDiag  1:
 SCF Done:  E(RPM7) =  0.392356990558E-01 A.U. after   11 cycles
            NFock= 10  Conv=0.46D-08     -V/T= 1.0007
 KE=-5.360540937725D+01 PE=-1.839937516409D+02 EE= 1.078750567169D+02
 Leave Link  502 at Sat Dec 13 16:31:30 2025, MaxMem=   536870912 cpu:               0.0 elap:               0.6
 (Enter D:\G16W\l801.exe)
 Range of M.O.s used for correlation:     1    35
 NBasis=    35 NAE=    17 NBE=    17 NFC=     0 NFV=     0
 NROrb=     35 NOA=    17 NOB=    17 NVA=    18 NVB=    18
 Leave Link  801 at Sat Dec 13 16:31:31 2025, MaxMem=   536870912 cpu:               1.0 elap:               0.1
 (Enter D:\G16W\l1101.exe)
 Leave Link 1101 at Sat Dec 13 16:31:31 2025, MaxMem=   536870912 cpu:               0.0 elap:               0.1
 (Enter D:\G16W\l1102.exe)
 Symmetrizing basis deriv contribution to polar:
 IMax=3 JMax=2 DiffMx= 0.00D+00
 Leave Link 1102 at Sat Dec 13 16:31:31 2025, MaxMem=   536870912 cpu:               0.0 elap:               0.1
 (Enter D:\G16W\l1110.exe)
 Leave Link 1110 at Sat Dec 13 16:31:31 2025, MaxMem=   536870912 cpu:               0.0 elap:               0.1
 (Enter D:\G16W\l1002.exe)
 Minotr:  Closed shell wavefunction.
 Leave Link 1002 at Sat Dec 13 16:31:31 2025, MaxMem=   536870912 cpu:               0.0 elap:               0.1
 (Enter D:\G16W\l701.exe)
 ... and contract with generalized density number  0.
 Compute integral first derivatives.
 R6Disp: Adding PM7 dispersion energy 1st derivatives to the gradient.
 Leave Link  701 at Sat Dec 13 16:31:31 2025, MaxMem=   536870912 cpu:               0.0 elap:               0.2
 (Enter D:\G16W\l702.exe)
 L702 exits ... SP integral derivatives will be done elsewhere.
 Leave Link  702 at Sat Dec 13 16:31:32 2025, MaxMem=   536870912 cpu:               1.0 elap:               0.1
 (Enter D:\G16W\l703.exe)
 Integral derivatives from FoFJK, PRISM(SPDF).
 Compute integral first derivatives, UseDBF=F ICtDFT=           0.
 Calling FoFJK, ICntrl=      2147 FMM=F ISym2X=0 I1Cent= 0 IOpClX= 0 NMat=1 NMatS=1 NMatT=0.
 FoFJK:  IHMeth=43 ICntrl=    2147 DoSepK=F KAlg= 0 I1Cent=           0 FoldK=F
 IRaf=         0 NMat=       1 IRICut=       1 DoRegI=T DoRafI=F ISym2E= 0 IDoP0=3 IntGTp=3.
 FoFCou: FMM=F IPFlag=           0 FMFlag=      100000 FMFlg1=         800
         NFxFlg=           0 DoJE=F BraDBF=F KetDBF=F FulRan=T
         wScrn=  0.000000 ICntrl=      2147 IOpCl=  0 I1Cent=           0 NGrid=           0
         NMat0=    1 NMatS0=      1 NMatT0=    0 NMatD0=    1 NMtDS0=    0 NMtDT0=    0
 Symmetry not used in FoFCou.
 Leave Link  703 at Sat Dec 13 16:31:32 2025, MaxMem=   536870912 cpu:               0.0 elap:               0.1
 (Enter D:\G16W\l716.exe)
 Dipole        = 5.11316168D+00 2.56099942D-07-3.09093109D-01
 Polarizability= 0.00000000D+00 0.00000000D+00 0.00000000D+00
                 0.00000000D+00 0.00000000D+00 0.00000000D+00
 -------------------------------------------------------------------
 Center     Atomic                   Forces (Hartrees/Bohr)
 Number     Number              X              Y              Z
 -------------------------------------------------------------------
      1        6           0.000626250    0.000033623    0.000031091
      2        7           0.002205844    0.000000011   -0.000299148
      3        6           0.000626370   -0.000033448    0.000031147
      4        1           0.000044048    0.000095055    0.000062000
      5        1          -0.000000407   -0.000041925   -0.000015293
      6        1          -0.000009418   -0.000036610   -0.000017555
      7        1           0.000204995    0.000000000   -0.000005660
      8        1          -0.000000503    0.000041807   -0.000015365
      9        1           0.000044113   -0.000095113    0.000062033
     10        1          -0.000009432    0.000036597   -0.000017557
     11        6          -0.006916937   -0.000000143    0.000533092
     12       53           0.003035362   -0.000000003   -0.000305332
     13        1           0.000051862   -0.000077231    0.000029701
     14        1           0.000045967   -0.000000040   -0.000103010
     15        1           0.000051885    0.000077418    0.000029856
 -------------------------------------------------------------------
 Cartesian Forces:  Max     0.006916937 RMS     0.001185934
 Z-matrix is all fixed cartesians, so copy forces.
 Leave Link  716 at Sat Dec 13 16:31:32 2025, MaxMem=   536870912 cpu:               0.0 elap:               0.1
 (Enter D:\G16W\l123.exe)
 IRC-IRC-IRC-IRC-IRC-IRC-IRC-IRC-IRC-IRC-IRC-IRC-IRC-IRC-IRC-IRC-IRC-IRC
 Pt  1 Step number   1 out of a maximum of  20
 Using modified Bulirsch-Stoer corrector integration.
   Using distance weighted interpolants to fit PES.
 PreDWI: IReCr0= 2 IReCr1= 1 IReCr2= 1 IReCr3= 1
 Modified Bulirsch-Stoer Extrapolation Cycles:
    EPS =    0.000010000000000
    Cycle     1 NS=    48
      PEZero:  N= 2 I= 1 D=  4.21D-04 Err=  1.18D-03
    Cycle     2 NS=    64 Truncation Error =  0.001175256
      PEZero:  N= 3 I= 2 D=  4.21D-04 Err=  7.83D-04
      PEZero:  N= 3 I= 1 D=  8.41D-04 Err=  4.49D-08
    Cycle     3 NS=    96 Truncation Error =  0.000000045
 BS completed in    3 cycles and     208 integration steps.
 Maximum DWI energy   std dev =  0.000000079 at pt    28
 Maximum DWI gradient std dev =  0.045801531 at pt     2
 SUMMARY OF CORRECTOR INTEGRATION:
   Predictor End Point Energy =     0.039236
   Old End Point Energy       =     0.039236
   Corrected End Point Energy =     0.039236
   Predictor End-Start Dist.  =     0.161548
   Old End-Start Dist.        =     0.161548
   New End-Start Dist.        =     0.161544
   New End-Old End Dist.      =     0.000883
 CORRECTOR INTEGRATION CONVERGENCE:
   Recorrection delta-x convergence threshold:    0.010000
   Delta-x Convergence Met
 Point Number:   1          Path Number:   1
                    CURRENT STRUCTURE
                Cartesian Coordinates (Ang):                
 ---------------------------------------------------------------------
 Center     Atomic                     Coordinates (Angstroms)
 Number     Number                        X           Y           Z
 ---------------------------------------------------------------------
      1          6                    3.675908    1.226724    0.217348
      2          7                    3.130066    0.000000   -0.417440
      3          6                    3.675908   -1.226724    0.217348
      4          1                    4.773014    1.293247    0.151371
      5          1                    3.246893    2.122009   -0.267868
      6          1                    3.396505    1.264643    1.285593
      7          1                    3.334224    0.000000   -1.425819
      8          1                    3.246893   -2.122009   -0.267868
      9          1                    4.773014   -1.293247    0.151371
     10          1                    3.396505   -1.264643    1.285593
     11          6                    1.237996    0.000000   -0.228994
     12         53                   -1.393423    0.000000    0.024676
     13          1                    1.122177    0.936803   -0.761235
     14          1                    1.273966    0.000000    0.853827
     15          1                    1.122177   -0.936803   -0.761236
 ---------------------------------------------------------------------
   CHANGE IN THE REACTION COORDINATE =    0.16154
   NET REACTION COORDINATE UP TO THIS POINT =    0.16154
  # OF POINTS ALONG THE PATH =   1
  # OF STEPS =   1

 Calculating another point on the path.
 Point Number  2 in FORWARD path direction.
 Using LQA Reaction Path Following.
   LQA: T_Est iteration completed in    3 iterations.
 IRC-IRC-IRC-IRC-IRC-IRC-IRC-IRC-IRC-IRC-IRC-IRC-IRC-IRC-IRC-IRC-IRC-IRC
 Leave Link  123 at Sat Dec 13 16:31:32 2025, MaxMem=   536870912 cpu:               0.0 elap:               0.1
 (Enter D:\G16W\l202.exe)
                          Input orientation:                          
 ---------------------------------------------------------------------
 Center     Atomic      Atomic             Coordinates (Angstroms)
 Number     Number       Type             X           Y           Z
 ---------------------------------------------------------------------
      1          6           0        3.677929    1.226824    0.217443
      2          7           0        3.136581    0.000000   -0.418308
      3          6           0        3.677929   -1.226824    0.217443
      4          1           0        4.774897    1.297006    0.153818
      5          1           0        3.246948    2.120497   -0.268487
      6          1           0        3.396196    1.263166    1.284892
      7          1           0        3.341496    0.000000   -1.425419
      8          1           0        3.246949   -2.120497   -0.268488
      9          1           0        4.774898   -1.297006    0.153818
     10          1           0        3.396196   -1.263166    1.284892
     11          6           0        1.215034    0.000000   -0.227254
     12         53           0       -1.392467    0.000000    0.024580
     13          1           0        1.123294    0.937275   -0.762033
     14          1           0        1.275531    0.000000    0.853948
     15          1           0        1.123294   -0.937274   -0.762034
 ---------------------------------------------------------------------
                    Distance matrix (angstroms):
                    1          2          3          4          5
     1  C    0.000000
     2  N    1.484027   0.000000
     3  C    2.453648   1.484027   0.000000
     4  H    1.101051   2.166480   2.752654   0.000000
     5  H    1.104773   2.128646   3.409755   1.786367   0.000000
     6  H    1.104600   2.136324   2.723760   1.783617   1.780528
     7  H    2.077807   1.027747   2.077807   2.496168   2.417424
     8  H    3.409755   2.128646   1.104773   3.767266   4.240994
     9  H    2.752654   2.166480   1.101051   2.594012   3.767266
    10  H    2.723760   2.136324   1.104600   3.120036   3.726183
    11  C    2.787240   1.931022   2.787240   3.807896   2.937156
    12  I    5.220269   4.550651   5.220269   6.303595   5.109458
    13  H    2.751249   2.247210   3.488389   3.781851   2.480627
    14  H    2.771597   2.254361   2.771597   3.797100   3.105295
    15  H    3.488389   2.247210   2.751250   4.377785   3.755457
                    6          7          8          9         10
     6  H    0.000000
     7  H    2.990714   0.000000
     8  H    3.726183   2.417424   0.000000
     9  H    3.120036   2.496168   1.786367   0.000000
    10  H    2.526331   2.990714   1.780528   1.783617   0.000000
    11  C    2.939327   2.440787   2.937156   3.807896   2.939327
    12  I    5.110310   4.951050   5.109459   6.303595   5.110310
    13  H    3.076068   2.497796   3.755458   4.377785   3.768013
    14  H    2.505698   3.076317   3.105295   3.797100   2.505698
    15  H    3.768014   2.497795   2.480627   3.781851   3.076068
                   11         12         13         14         15
    11  C    0.000000
    12  I    2.619633   0.000000
    13  H    1.083000   2.797552   0.000000
    14  H    1.082894   2.793933   1.874315   0.000000
    15  H    1.083000   2.797552   1.874549   1.874315   0.000000
 Symmetry turned off by external request.
 Stoichiometry    C3H10IN
 Framework group  C1[X(C3H10IN)]
 Deg. of freedom    39
 Full point group                 C1      NOp   1
 Rotational constants (GHZ):           7.7391573           0.5989084           0.5706250
 Leave Link  202 at Sat Dec 13 16:31:32 2025, MaxMem=   536870912 cpu:               0.0 elap:               0.0
 (Enter D:\G16W\l301.exe)
 Standard basis: VSTO-6G (5D, 7F)
 Ernie: Thresh=  0.10000D-02 Tol=  0.10000D-05 Strict=F.
 EHB=         0.000000000 Number of Hydrogen Bonds=     0
  NNHCO=     0 NNPyr=     0 NCTC=     0               EPep=         0.000000000
    EC=        93.564697067  ECS=         2.172888938   EG=         0.386952899
   EHC=         0.000425179  EAt=       -31.688835444  AtH=         1.868030760
 EPDDG=         0.000000000  ECC=        96.124964083 EAtT=        33.556866204
  EHyb=         0.000000000
    35 basis functions,   216 primitive gaussians,    36 cartesian basis functions
    17 alpha electrons       17 beta electrons
       nuclear repulsion energy       129.6818302875 Hartrees.
 IExCor=    0 DFT=F Ex=HF Corr=None ExCW=0 ScaHFX=  1.000000
 ScaDFX=  1.000000  1.000000  1.000000  1.000000 ScalE2=  1.000000  1.000000
 IRadAn=      5 IRanWt=     -1 IRanGd=            0 ICorTp=0 IEmpDi=251
 Integral buffers will be    131072 words long.
 Regular integral format.
 Two-electron integral symmetry is turned off.
 R6Disp:  PM7 Dispersion energy=       -0.0020651843 Hartrees.
 Nuclear repulsion after empirical dispersion term =      129.6797651032 Hartrees.
 Leave Link  301 at Sat Dec 13 16:31:32 2025, MaxMem=   536870912 cpu:               0.0 elap:               0.1
 (Enter D:\G16W\l302.exe)
 Do NDO integrals.
 NPDir=0 NMtPBC=     1 NCelOv=     1 NCel=       1 NClECP=     1 NCelD=      1
         NCelK=      1 NCelE2=     1 NClLst=     1 CellRange=     0.0.
 One-electron integrals computed using PRISM.
 NBasis=    35 RedAO= F EigKep=  0.00D+00  NBF=    35
 NBsUse=    35 1.00D-04 EigRej=  0.00D+00 NBFU=    35
 Leave Link  302 at Sat Dec 13 16:31:32 2025, MaxMem=   536870912 cpu:               0.0 elap:               0.2
 (Enter D:\G16W\l303.exe)
 DipDrv:  MaxL=1.
 Leave Link  303 at Sat Dec 13 16:31:33 2025, MaxMem=   536870912 cpu:               0.0 elap:               0.1
 (Enter D:\G16W\l401.exe)
 Initial guess from the checkpoint file:  ".\Gau-26872.chk"
 B after Tr=    -0.000058    0.000000    0.000019
         Rot=    1.000000    0.000000    0.000012    0.000000 Ang=   0.00 deg.
 Guess basis will be translated and rotated to current coordinates.
 JPrj=0 DoOrth=T DoCkMO=T.
 Leave Link  401 at Sat Dec 13 16:31:33 2025, MaxMem=   536870912 cpu:               0.0 elap:               0.1
 (Enter D:\G16W\l502.exe)
 Keep J ints in memory in canonical form, NReq=1851606.
 FoFCou: FMM=F IPFlag=           0 FMFlag=           0 FMFlg1=           0
         NFxFlg=           0 DoJE=F BraDBF=F KetDBF=F FulRan=T
         wScrn=  0.000000 ICntrl=       600 IOpCl=  2 I1Cent=           0 NGrid=           0
         NMat0=    1 NMatS0=     95 NMatT0=    0 NMatD0=    1 NMtDS0=    0 NMtDT0=    0
 Symmetry not used in FoFCou.
 Two-electron integral symmetry not used.
 Closed shell SCF:
 Using DIIS extrapolation, IDIIS=  1040.
 Overlap will be assumed to be unity.
 NGot=   536870912 LenX=   536803851 LenY=   536802114
 Requested convergence on RMS density matrix=1.00D-08 within 128 cycles.
 Requested convergence on MAX density matrix=1.00D-06.
 Requested convergence on             energy=1.00D-06.
 No special actions if energy rises.

 Cycle   1  Pass 1  IDiag  1:
 E= 0.393495946584039E-01
 DIIS: error= 2.76D-03 at cycle   1 NSaved=   1.
 NSaved= 1 IEnMin= 1 EnMin= 0.393495946584039E-01 IErMin= 1 ErrMin= 2.76D-03
 ErrMax= 2.76D-03  0.00D+00 EMaxC= 1.00D-01 BMatC= 1.21D-04 BMatP= 1.21D-04
 IDIUse=3 WtCom= 9.72D-01 WtEn= 2.76D-02
 Coeff-Com:  0.100D+01
 Coeff-En:   0.100D+01
 Coeff:      0.100D+01
 GapD=    2.000 DampG=2.000 DampE=1.000 DampFc=2.0000 IDamp=-1.
 RMSDP=7.78D-04 MaxDP=8.44D-03              OVMax= 0.00D+00

 Cycle   2  Pass 1  IDiag  3:
 E= 0.388421138771093E-01 Delta-E=       -0.000507480781 Rises=F Damp=F
 DIIS: error= 1.07D-03 at cycle   2 NSaved=   2.
 NSaved= 2 IEnMin= 2 EnMin= 0.388421138771093E-01 IErMin= 2 ErrMin= 1.07D-03
 ErrMax= 1.07D-03  0.00D+00 EMaxC= 1.00D-01 BMatC= 1.89D-05 BMatP= 1.21D-04
 IDIUse=3 WtCom= 9.89D-01 WtEn= 1.07D-02
 Coeff-Com: -0.449D+00 0.145D+01
 Coeff-En:   0.000D+00 0.100D+01
 Coeff:     -0.444D+00 0.144D+01
 Gap=     0.275 Goal=   None    Shift=    0.000
 RMSDP=4.96D-04 MaxDP=5.55D-03 DE=-5.07D-04 OVMax= 8.15D-03

 Cycle   3  Pass 1  IDiag  3:
 E= 0.387270229689136E-01 Delta-E=       -0.000115090908 Rises=F Damp=F
 DIIS: error= 1.69D-04 at cycle   3 NSaved=   3.
 NSaved= 3 IEnMin= 3 EnMin= 0.387270229689136E-01 IErMin= 3 ErrMin= 1.69D-04
 ErrMax= 1.69D-04  0.00D+00 EMaxC= 1.00D-01 BMatC= 1.13D-06 BMatP= 1.89D-05
 IDIUse=3 WtCom= 9.98D-01 WtEn= 1.69D-03
 Coeff-Com:  0.436D-01-0.302D+00 0.126D+01
 Coeff-En:   0.000D+00 0.000D+00 0.100D+01
 Coeff:      0.436D-01-0.302D+00 0.126D+01
 Gap=     0.276 Goal=   None    Shift=    0.000
 RMSDP=1.43D-04 MaxDP=1.74D-03 DE=-1.15D-04 OVMax= 2.49D-03

 Cycle   4  Pass 1  IDiag  3:
 E= 0.387183545040273E-01 Delta-E=       -0.000008668465 Rises=F Damp=F
 DIIS: error= 6.22D-05 at cycle   4 NSaved=   4.
 NSaved= 4 IEnMin= 4 EnMin= 0.387183545040273E-01 IErMin= 4 ErrMin= 6.22D-05
 ErrMax= 6.22D-05  0.00D+00 EMaxC= 1.00D-01 BMatC= 1.05D-07 BMatP= 1.13D-06
 IDIUse=1 WtCom= 1.00D+00 WtEn= 0.00D+00
 Coeff-Com:  0.201D-01-0.374D-01-0.321D+00 0.134D+01
 Coeff:      0.201D-01-0.374D-01-0.321D+00 0.134D+01
 Gap=     0.276 Goal=   None    Shift=    0.000
 RMSDP=5.14D-05 MaxDP=6.97D-04 DE=-8.67D-06 OVMax= 9.75D-04

 Cycle   5  Pass 1  IDiag  3:
 E= 0.387175086484035E-01 Delta-E=       -0.000000845856 Rises=F Damp=F
 DIIS: error= 1.28D-05 at cycle   5 NSaved=   5.
 NSaved= 5 IEnMin= 5 EnMin= 0.387175086484035E-01 IErMin= 5 ErrMin= 1.28D-05
 ErrMax= 1.28D-05  0.00D+00 EMaxC= 1.00D-01 BMatC= 6.11D-09 BMatP= 1.05D-07
 IDIUse=1 WtCom= 1.00D+00 WtEn= 0.00D+00
 Coeff-Com: -0.107D-01 0.382D-01 0.177D-01-0.458D+00 0.141D+01
 Coeff:     -0.107D-01 0.382D-01 0.177D-01-0.458D+00 0.141D+01
 Gap=     0.276 Goal=   None    Shift=    0.000
 RMSDP=1.08D-05 MaxDP=1.49D-04 DE=-8.46D-07 OVMax= 2.08D-04

 Cycle   6  Pass 1  IDiag  3:
 E= 0.387174695451051E-01 Delta-E=       -0.000000039103 Rises=F Damp=F
 DIIS: error= 2.72D-06 at cycle   6 NSaved=   6.
 NSaved= 6 IEnMin= 6 EnMin= 0.387174695451051E-01 IErMin= 6 ErrMin= 2.72D-06
 ErrMax= 2.72D-06  0.00D+00 EMaxC= 1.00D-01 BMatC= 3.25D-10 BMatP= 6.11D-09
 IDIUse=1 WtCom= 1.00D+00 WtEn= 0.00D+00
 Coeff-Com:  0.485D-02-0.189D-01 0.716D-02 0.173D+00-0.711D+00 0.154D+01
 Coeff:      0.485D-02-0.189D-01 0.716D-02 0.173D+00-0.711D+00 0.154D+01
 Gap=     0.276 Goal=   None    Shift=    0.000
 RMSDP=1.87D-06 MaxDP=1.62D-05 DE=-3.91D-08 OVMax= 1.76D-05

 Cycle   7  Pass 1  IDiag  3:
 E= 0.387174677403834E-01 Delta-E=       -0.000000001805 Rises=F Damp=F
 DIIS: error= 6.19D-07 at cycle   7 NSaved=   7.
 NSaved= 7 IEnMin= 7 EnMin= 0.387174677403834E-01 IErMin= 7 ErrMin= 6.19D-07
 ErrMax= 6.19D-07  0.00D+00 EMaxC= 1.00D-01 BMatC= 1.75D-11 BMatP= 3.25D-10
 IDIUse=1 WtCom= 1.00D+00 WtEn= 0.00D+00
 Coeff-Com: -0.860D-03 0.360D-02-0.321D-02-0.256D-01 0.138D+00-0.508D+00
 Coeff-Com:  0.140D+01
 Coeff:     -0.860D-03 0.360D-02-0.321D-02-0.256D-01 0.138D+00-0.508D+00
 Coeff:      0.140D+01
 Gap=     0.276 Goal=   None    Shift=    0.000
 RMSDP=4.35D-07 MaxDP=3.96D-06 DE=-1.80D-09 OVMax= 3.21D-06

 Cycle   8  Pass 1  IDiag  3:
 E= 0.387174676413053E-01 Delta-E=       -0.000000000099 Rises=F Damp=F
 DIIS: error= 9.44D-08 at cycle   8 NSaved=   8.
 NSaved= 8 IEnMin= 8 EnMin= 0.387174676413053E-01 IErMin= 8 ErrMin= 9.44D-08
 ErrMax= 9.44D-08  0.00D+00 EMaxC= 1.00D-01 BMatC= 8.95D-13 BMatP= 1.75D-11
 IDIUse=1 WtCom= 1.00D+00 WtEn= 0.00D+00
 Coeff-Com:  0.194D-03-0.868D-03 0.932D-03 0.565D-02-0.357D-01 0.157D+00
 Coeff-Com: -0.594D+00 0.147D+01
 Coeff:      0.194D-03-0.868D-03 0.932D-03 0.565D-02-0.357D-01 0.157D+00
 Coeff:     -0.594D+00 0.147D+01
 Gap=     0.276 Goal=   None    Shift=    0.000
 RMSDP=1.07D-07 MaxDP=8.02D-07 DE=-9.91D-11 OVMax= 9.06D-07

 Cycle   9  Pass 1  IDiag  3:
 E= 0.387174676355073E-01 Delta-E=       -0.000000000006 Rises=F Damp=F
 DIIS: error= 3.52D-08 at cycle   9 NSaved=   9.
 NSaved= 9 IEnMin= 9 EnMin= 0.387174676355073E-01 IErMin= 9 ErrMin= 3.52D-08
 ErrMax= 3.52D-08  0.00D+00 EMaxC= 1.00D-01 BMatC= 4.43D-14 BMatP= 8.95D-13
 IDIUse=1 WtCom= 1.00D+00 WtEn= 0.00D+00
 Coeff-Com: -0.241D-04 0.118D-03-0.106D-03-0.843D-03 0.612D-02-0.338D-01
 Coeff-Com:  0.163D+00-0.588D+00 0.145D+01
 Coeff:     -0.241D-04 0.118D-03-0.106D-03-0.843D-03 0.612D-02-0.338D-01
 Coeff:      0.163D+00-0.588D+00 0.145D+01
 Gap=     0.276 Goal=   None    Shift=    0.000
 RMSDP=2.66D-08 MaxDP=3.39D-07 DE=-5.80D-12 OVMax= 3.18D-07

 Cycle  10  Pass 1  IDiag  3:
 E= 0.387174676347684E-01 Delta-E=       -0.000000000001 Rises=F Damp=F
 DIIS: error= 5.30D-09 at cycle  10 NSaved=  10.
 NSaved=10 IEnMin=10 EnMin= 0.387174676347684E-01 IErMin=10 ErrMin= 5.30D-09
 ErrMax= 5.30D-09  0.00D+00 EMaxC= 1.00D-01 BMatC= 1.29D-15 BMatP= 4.43D-14
 IDIUse=1 WtCom= 1.00D+00 WtEn= 0.00D+00
 Coeff-Com:  0.234D-05-0.136D-04 0.261D-04 0.376D-04-0.663D-03 0.468D-02
 Coeff-Com: -0.257D-01 0.110D+00-0.392D+00 0.130D+01
 Coeff:      0.234D-05-0.136D-04 0.261D-04 0.376D-04-0.663D-03 0.468D-02
 Coeff:     -0.257D-01 0.110D+00-0.392D+00 0.130D+01
 Gap=     0.276 Goal=   None    Shift=    0.000
 RMSDP=4.22D-09 MaxDP=5.72D-08 DE=-7.39D-13 OVMax= 5.89D-08

 Cycle  11  Pass 2  IDiag  1:
 SCF Done:  E(RPM7) =  0.387174676348E-01 A.U. after   11 cycles
            NFock= 10  Conv=0.42D-08     -V/T= 1.0007
 KE=-5.358342176004D+01 PE=-1.839333689020D+02 EE= 1.078757430265D+02
 Leave Link  502 at Sat Dec 13 16:31:34 2025, MaxMem=   536870912 cpu:               1.0 elap:               0.6
 (Enter D:\G16W\l801.exe)
 Range of M.O.s used for correlation:     1    35
 NBasis=    35 NAE=    17 NBE=    17 NFC=     0 NFV=     0
 NROrb=     35 NOA=    17 NOB=    17 NVA=    18 NVB=    18
 Leave Link  801 at Sat Dec 13 16:31:34 2025, MaxMem=   536870912 cpu:               0.0 elap:               0.1
 (Enter D:\G16W\l1101.exe)
 Leave Link 1101 at Sat Dec 13 16:31:34 2025, MaxMem=   536870912 cpu:               0.0 elap:               0.1
 (Enter D:\G16W\l1102.exe)
 Symmetrizing basis deriv contribution to polar:
 IMax=3 JMax=2 DiffMx= 0.00D+00
 Leave Link 1102 at Sat Dec 13 16:31:34 2025, MaxMem=   536870912 cpu:               0.0 elap:               0.1
 (Enter D:\G16W\l1110.exe)
 Leave Link 1110 at Sat Dec 13 16:31:34 2025, MaxMem=   536870912 cpu:               0.0 elap:               0.1
 (Enter D:\G16W\l1002.exe)
 Minotr:  Closed shell wavefunction.
 Leave Link 1002 at Sat Dec 13 16:31:34 2025, MaxMem=   536870912 cpu:               0.0 elap:               0.1
 (Enter D:\G16W\l701.exe)
 ... and contract with generalized density number  0.
 Compute integral first derivatives.
 R6Disp: Adding PM7 dispersion energy 1st derivatives to the gradient.
 Leave Link  701 at Sat Dec 13 16:31:35 2025, MaxMem=   536870912 cpu:               1.0 elap:               0.1
 (Enter D:\G16W\l702.exe)
 L702 exits ... SP integral derivatives will be done elsewhere.
 Leave Link  702 at Sat Dec 13 16:31:35 2025, MaxMem=   536870912 cpu:               0.0 elap:               0.1
 (Enter D:\G16W\l703.exe)
 Integral derivatives from FoFJK, PRISM(SPDF).
 Compute integral first derivatives, UseDBF=F ICtDFT=           0.
 Calling FoFJK, ICntrl=      2147 FMM=F ISym2X=0 I1Cent= 0 IOpClX= 0 NMat=1 NMatS=1 NMatT=0.
 FoFJK:  IHMeth=43 ICntrl=    2147 DoSepK=F KAlg= 0 I1Cent=           0 FoldK=F
 IRaf=         0 NMat=       1 IRICut=       1 DoRegI=T DoRafI=F ISym2E= 0 IDoP0=3 IntGTp=3.
 FoFCou: FMM=F IPFlag=           0 FMFlag=      100000 FMFlg1=         800
         NFxFlg=           0 DoJE=F BraDBF=F KetDBF=F FulRan=T
         wScrn=  0.000000 ICntrl=      2147 IOpCl=  0 I1Cent=           0 NGrid=           0
         NMat0=    1 NMatS0=      1 NMatT0=    0 NMatD0=    1 NMtDS0=    0 NMtDT0=    0
 Symmetry not used in FoFCou.
 Leave Link  703 at Sat Dec 13 16:31:35 2025, MaxMem=   536870912 cpu:               0.0 elap:               0.2
 (Enter D:\G16W\l716.exe)
 Dipole        = 4.84892103D+00 2.70351410D-08-2.91775786D-01
 Polarizability= 0.00000000D+00 0.00000000D+00 0.00000000D+00
                 0.00000000D+00 0.00000000D+00 0.00000000D+00
 -------------------------------------------------------------------
 Center     Atomic                   Forces (Hartrees/Bohr)
 Number     Number              X              Y              Z
 -------------------------------------------------------------------
      1        6           0.001218310    0.000088236    0.000072018
      2        7           0.004341195    0.000000000   -0.000614145
      3        6           0.001218310   -0.000088237    0.000072018
      4        1           0.000088961    0.000189956    0.000122886
      5        1          -0.000000938   -0.000067713   -0.000031101
      6        1          -0.000017677   -0.000069367   -0.000033268
      7        1           0.000412672    0.000000000   -0.000014343
      8        1          -0.000000938    0.000067714   -0.000031100
      9        1           0.000088958   -0.000189956    0.000122885
     10        1          -0.000017677    0.000069367   -0.000033268
     11        6          -0.013816951    0.000000002    0.001080830
     12       53           0.006246285    0.000000001   -0.000620791
     13        1           0.000081662   -0.000154241    0.000060752
     14        1           0.000076159    0.000000000   -0.000214123
     15        1           0.000081668    0.000154237    0.000060750
 -------------------------------------------------------------------
 Cartesian Forces:  Max     0.013816951 RMS     0.002376401
 Z-matrix is all fixed cartesians, so copy forces.
 Leave Link  716 at Sat Dec 13 16:31:35 2025, MaxMem=   536870912 cpu:               0.0 elap:               0.1
 (Enter D:\G16W\l123.exe)
 IRC-IRC-IRC-IRC-IRC-IRC-IRC-IRC-IRC-IRC-IRC-IRC-IRC-IRC-IRC-IRC-IRC-IRC
 Pt  2 Step number   1 out of a maximum of  20
 Using modified Bulirsch-Stoer corrector integration.
   Using distance weighted interpolants to fit PES.
 PreDWI: IReCr0= 2 IReCr1= 1 IReCr2= 1 IReCr3= 1
 Modified Bulirsch-Stoer Extrapolation Cycles:
    EPS =    0.000010000000000
    Cycle     1 NS=    48
      PEZero:  N= 2 I= 1 D=  8.41D-04 Err=  5.58D-06
    Cycle     2 NS=    64 Truncation Error =  0.000005583
 BS completed in    2 cycles and     112 integration steps.
 Maximum DWI energy   std dev =  0.000000248 at pt    29
 Maximum DWI gradient std dev =  0.030557910 at pt    27
 SUMMARY OF CORRECTOR INTEGRATION:
   Predictor End Point Energy =     0.038717
   Old End Point Energy       =     0.038717
   Corrected End Point Energy =     0.038717
   Predictor End-Start Dist.  =     0.161492
   Old End-Start Dist.        =     0.161492
   New End-Start Dist.        =     0.161489
   New End-Old End Dist.      =     0.001410
 CORRECTOR INTEGRATION CONVERGENCE:
   Recorrection delta-x convergence threshold:    0.010000
   Delta-x Convergence Met
 Point Number:   2          Path Number:   1
                    CURRENT STRUCTURE
                Cartesian Coordinates (Ang):                
 ---------------------------------------------------------------------
 Center     Atomic                     Coordinates (Angstroms)
 Number     Number                        X           Y           Z
 ---------------------------------------------------------------------
      1          6                    3.677921    1.226837    0.217451
      2          7                    3.136498    0.000000   -0.418321
      3          6                    3.677921   -1.226837    0.217451
      4          1                    4.774876    1.297003    0.153814
      5          1                    3.246935    2.120522   -0.268477
      6          1                    3.396184    1.263191    1.284897
      7          1                    3.341712    0.000000   -1.425457
      8          1                    3.246936   -2.120522   -0.268477
      9          1                    4.774876   -1.297003    0.153814
     10          1                    3.396184   -1.263191    1.284897
     11          6                    1.215016    0.000000   -0.227242
     12         53                   -1.392456    0.000000    0.024579
     13          1                    1.123328    0.936974   -0.761862
     14          1                    1.275528    0.000000    0.853585
     15          1                    1.123328   -0.936974   -0.761862
 ---------------------------------------------------------------------
   CHANGE IN THE REACTION COORDINATE =    0.16149
   NET REACTION COORDINATE UP TO THIS POINT =    0.32303
  # OF POINTS ALONG THE PATH =   2
  # OF STEPS =   1

 Calculating another point on the path.
 Point Number  3 in FORWARD path direction.
 Using LQA Reaction Path Following.
   LQA: T_Est iteration completed in    3 iterations.
 IRC-IRC-IRC-IRC-IRC-IRC-IRC-IRC-IRC-IRC-IRC-IRC-IRC-IRC-IRC-IRC-IRC-IRC
 Leave Link  123 at Sat Dec 13 16:31:35 2025, MaxMem=   536870912 cpu:               0.0 elap:               0.1
 (Enter D:\G16W\l202.exe)
                          Input orientation:                          
 ---------------------------------------------------------------------
 Center     Atomic      Atomic             Coordinates (Angstroms)
 Number     Number       Type             X           Y           Z
 ---------------------------------------------------------------------
      1          6           0        3.679899    1.226962    0.217559
      2          7           0        3.142840    0.000000   -0.419216
      3          6           0        3.679899   -1.226962    0.217559
      4          1           0        4.776700    1.300740    0.156248
      5          1           0        3.246957    2.119056   -0.269074
      6          1           0        3.395836    1.261760    1.284205
      7          1           0        3.349306    0.000000   -1.425082
      8          1           0        3.246957   -2.119056   -0.269075
      9          1           0        4.776700   -1.300740    0.156248
[...]
 KE=-5.399465818005D+01 PE=-1.847103556296D+02 EE= 1.079454017617D+02
 Leave Link  502 at Sat Dec 13 16:33:45 2025, MaxMem=   536870912 cpu:               1.0 elap:               0.6
 (Enter D:\G16W\l801.exe)
 Range of M.O.s used for correlation:     1    35
 NBasis=    35 NAE=    17 NBE=    17 NFC=     0 NFV=     0
 NROrb=     35 NOA=    17 NOB=    17 NVA=    18 NVB=    18
 Leave Link  801 at Sat Dec 13 16:33:45 2025, MaxMem=   536870912 cpu:               0.0 elap:               0.1
 (Enter D:\G16W\l1101.exe)
 Leave Link 1101 at Sat Dec 13 16:33:45 2025, MaxMem=   536870912 cpu:               0.0 elap:               0.1
 (Enter D:\G16W\l1102.exe)
 Symmetrizing basis deriv contribution to polar:
 IMax=3 JMax=2 DiffMx= 0.00D+00
 Leave Link 1102 at Sat Dec 13 16:33:45 2025, MaxMem=   536870912 cpu:               0.0 elap:               0.1
 (Enter D:\G16W\l1110.exe)
 Leave Link 1110 at Sat Dec 13 16:33:46 2025, MaxMem=   536870912 cpu:               1.0 elap:               0.1
 (Enter D:\G16W\l1002.exe)
 Minotr:  Closed shell wavefunction.
 Leave Link 1002 at Sat Dec 13 16:33:46 2025, MaxMem=   536870912 cpu:               0.0 elap:               0.1
 (Enter D:\G16W\l701.exe)
 ... and contract with generalized density number  0.
 Compute integral first derivatives.
 R6Disp: Adding PM7 dispersion energy 1st derivatives to the gradient.
 Leave Link  701 at Sat Dec 13 16:33:46 2025, MaxMem=   536870912 cpu:               0.0 elap:               0.2
 (Enter D:\G16W\l702.exe)
 L702 exits ... SP integral derivatives will be done elsewhere.
 Leave Link  702 at Sat Dec 13 16:33:46 2025, MaxMem=   536870912 cpu:               0.0 elap:               0.1
 (Enter D:\G16W\l703.exe)
 Integral derivatives from FoFJK, PRISM(SPDF).
 Compute integral first derivatives, UseDBF=F ICtDFT=           0.
 Calling FoFJK, ICntrl=      2147 FMM=F ISym2X=0 I1Cent= 0 IOpClX= 0 NMat=1 NMatS=1 NMatT=0.
 FoFJK:  IHMeth=43 ICntrl=    2147 DoSepK=F KAlg= 0 I1Cent=           0 FoldK=F
 IRaf=         0 NMat=       1 IRICut=       1 DoRegI=T DoRafI=F ISym2E= 0 IDoP0=3 IntGTp=3.
 FoFCou: FMM=F IPFlag=           0 FMFlag=      100000 FMFlg1=         800
         NFxFlg=           0 DoJE=F BraDBF=F KetDBF=F FulRan=T
         wScrn=  0.000000 ICntrl=      2147 IOpCl=  0 I1Cent=           0 NGrid=           0
         NMat0=    1 NMatS0=      1 NMatT0=    0 NMatD0=    1 NMtDS0=    0 NMtDT0=    0
 Symmetry not used in FoFCou.
 Leave Link  703 at Sat Dec 13 16:33:46 2025, MaxMem=   536870912 cpu:               0.0 elap:               0.1
 (Enter D:\G16W\l716.exe)
 Dipole        = 7.94690160D+00 8.63264675D-08-4.86382604D-01
 Polarizability= 0.00000000D+00 0.00000000D+00 0.00000000D+00
                 0.00000000D+00 0.00000000D+00 0.00000000D+00
 -------------------------------------------------------------------
 Center     Atomic                   Forces (Hartrees/Bohr)
 Number     Number              X              Y              Z
 -------------------------------------------------------------------
      1        6           0.001825446   -0.000039863    0.000299549
      2        7           0.002611054    0.000000010    0.000092842
      3        6           0.001825446    0.000039863    0.000299550
      4        1           0.000143334    0.000032367    0.000088027
      5        1           0.000155112   -0.000011766    0.000021949
      6        1           0.000098274   -0.000038017    0.000016815
      7        1          -0.000038460    0.000000000    0.000133801
      8        1           0.000155112    0.000011766    0.000021949
      9        1           0.000143334   -0.000032367    0.000088026
     10        1           0.000098274    0.000038017    0.000016813
     11        6           0.002738515    0.000000017   -0.001735352
     12       53          -0.009535121    0.000000000    0.001116366
     13        1          -0.000095894    0.000218650   -0.000244678
     14        1          -0.000028503    0.000000001    0.000029035
     15        1          -0.000095923   -0.000218677   -0.000244691
 -------------------------------------------------------------------
 Cartesian Forces:  Max     0.009535121 RMS     0.001610622
 Z-matrix is all fixed cartesians, so copy forces.
 Leave Link  716 at Sat Dec 13 16:33:47 2025, MaxMem=   536870912 cpu:               1.0 elap:               0.1
 (Enter D:\G16W\l123.exe)
 IRC-IRC-IRC-IRC-IRC-IRC-IRC-IRC-IRC-IRC-IRC-IRC-IRC-IRC-IRC-IRC-IRC-IRC
 Pt 40 Step number   1 out of a maximum of  20
 Using modified Bulirsch-Stoer corrector integration.
   Using distance weighted interpolants to fit PES.
 PreDWI: IReCr0= 2 IReCr1= 1 IReCr2= 1 IReCr3= 1
 Modified Bulirsch-Stoer Extrapolation Cycles:
    EPS =    0.000010000000000
    Cycle     1 NS=    48
      PEZero:  N= 2 I= 1 D=  8.41D-04 Err=  4.08D-05
    Cycle     2 NS=    64 Truncation Error =  0.000040839
      PEZero:  N= 3 I= 2 D=  8.41D-04 Err=  2.71D-05
      PEZero:  N= 3 I= 1 D=  1.68D-03 Err=  2.08D-07
    Cycle     3 NS=    96 Truncation Error =  0.000000208
 BS completed in    3 cycles and     208 integration steps.
 Maximum DWI energy   std dev =  0.000001004 at pt    23
 Maximum DWI gradient std dev =  0.115116376 at pt    29
 SUMMARY OF CORRECTOR INTEGRATION:
   Predictor End Point Energy =     0.022092
   Old End Point Energy       =     0.022092
   Corrected End Point Energy =     0.022089
   Predictor End-Start Dist.  =     0.161514
   Old End-Start Dist.        =     0.161514
   New End-Start Dist.        =     0.161327
   New End-Old End Dist.      =     0.008952
 CORRECTOR INTEGRATION CONVERGENCE:
   Recorrection delta-x convergence threshold:    0.010000
   Delta-x Convergence Met
 Point Number:  20          Path Number:   2
                    CURRENT STRUCTURE
                Cartesian Coordinates (Ang):                
 ---------------------------------------------------------------------
 Center     Atomic                     Coordinates (Angstroms)
 Number     Number                        X           Y           Z
 ---------------------------------------------------------------------
      1          6                    3.690332    1.235766    0.225490
      2          7                    3.138828    0.000000   -0.423485
      3          6                    3.690332   -1.235766    0.225490
      4          1                    4.787443    1.282978    0.145583
      5          1                    3.266423    2.143939   -0.248662
      6          1                    3.420127    1.279467    1.299060
      7          1                    3.396139    0.000000   -1.439653
      8          1                    3.266423   -2.143939   -0.248663
      9          1                    4.787444   -1.282978    0.145583
     10          1                    3.420127   -1.279467    1.299060
     11          6                    1.639595    0.000000   -0.284969
     12         53                   -1.438188    0.000000    0.029437
     13          1                    1.204252    0.899556   -0.768309
     14          1                    1.339333    0.000000    0.783543
     15          1                    1.204252   -0.899556   -0.768309
 ---------------------------------------------------------------------
   CHANGE IN THE REACTION COORDINATE =    0.16133
   NET REACTION COORDINATE UP TO THIS POINT =    3.22591
  # OF POINTS ALONG THE PATH =  40
  # OF STEPS =   1

 Maximum number of steps reached.
 Calculation of REVERSE path complete.
 Reaction path calculation complete.
 
 Energies reported relative to the TS energy of           0.039408
 --------------------------------------------------------------------------
    Summary of reaction path following
 --------------------------------------------------------------------------
                        Energy    RxCoord
   1                   -0.01732  -3.22591
   2                   -0.01705  -3.06458
   3                   -0.01675  -2.90315
   4                   -0.01643  -2.74171
   5                   -0.01608  -2.58032
   6                   -0.01569  -2.41902
   7                   -0.01525  -2.25788
   8                   -0.01473  -2.09727
   9                   -0.01406  -1.93717
  10                   -0.01312  -1.77634
  11                   -0.01188  -1.61502
  12                   -0.01040  -1.45356
  13                   -0.00876  -1.29207
  14                   -0.00708  -1.13056
  15                   -0.00544  -0.96905
  16                   -0.00392  -0.80755
  17                   -0.00258  -0.64604
  18                   -0.00149  -0.48453
  19                   -0.00067  -0.32303
  20                   -0.00017  -0.16154
  21                    0.00000   0.00000
  22                   -0.00017   0.16154
  23                   -0.00069   0.32303
  24                   -0.00155   0.48453
  25                   -0.00274   0.64604
  26                   -0.00423   0.80754
  27                   -0.00601   0.96905
  28                   -0.00803   1.13056
  29                   -0.01027   1.29207
  30                   -0.01268   1.45358
  31                   -0.01522   1.61509
  32                   -0.01784   1.77661
  33                   -0.02050   1.93812
  34                   -0.02314   2.09963
  35                   -0.02574   2.26114
  36                   -0.02824   2.42266
  37                   -0.03060   2.58417
  38                   -0.03278   2.74569
  39                   -0.03475   2.90719
  40                   -0.03646   3.06869
  41                   -0.03790   3.23016
 --------------------------------------------------------------------------
 
 Total number of points:                   40
 Total number of gradient calculations:    41
 Total number of Hessian calculations:      1
 IRC-IRC-IRC-IRC-IRC-IRC-IRC-IRC-IRC-IRC-IRC-IRC-IRC-IRC-IRC-IRC-IRC-IRC
 Leave Link  123 at Sat Dec 13 16:33:47 2025, MaxMem=   536870912 cpu:               0.0 elap:               0.2
 (Enter D:\G16W\l202.exe)
                          Input orientation:                          
 ---------------------------------------------------------------------
 Center     Atomic      Atomic             Coordinates (Angstroms)
 Number     Number       Type             X           Y           Z
 ---------------------------------------------------------------------
      1          6           0        3.690222    1.235749    0.225535
      2          7           0        3.139062    0.000000   -0.423926
      3          6           0        3.690222   -1.235749    0.225535
      4          1           0        4.787348    1.282830    0.145446
      5          1           0        3.266291    2.144031   -0.248447
      6          1           0        3.420079    1.279439    1.299088
      7          1           0        3.398571    0.000000   -1.439917
      8          1           0        3.266292   -2.144031   -0.248447
      9          1           0        4.787348   -1.282830    0.145446
     10          1           0        3.420079   -1.279439    1.299088
     11          6           0        1.639155    0.000000   -0.284591
     12         53           0       -1.438191    0.000000    0.029437
     13          1           0        1.206141    0.899296   -0.768140
     14          1           0        1.340267    0.000000    0.783571
     15          1           0        1.206141   -0.899296   -0.768140
 ---------------------------------------------------------------------
                    Distance matrix (angstroms):
                    1          2          3          4          5
     1  C    0.000000
     2  N    1.500883   0.000000
     3  C    2.471498   1.500883   0.000000
     4  H    1.101053   2.164874   2.748334   0.000000
     5  H    1.108761   2.154959   3.439082   1.791768   0.000000
     6  H    1.107882   2.164419   2.748028   1.788946   1.779335
     7  H    2.094246   1.048610   2.094246   2.467332   2.456414
     8  H    3.439082   2.154959   1.108761   3.769899   4.288062
     9  H    2.748334   2.164874   1.101053   2.565660   3.769899
    10  H    2.748028   2.164419   1.107882   3.124986   3.760141
    11  C    2.448301   1.506366   2.448301   3.426617   2.691793
    12  I    5.278839   4.599651   5.278839   6.357393   5.177474
    13  H    2.696525   2.159491   3.422932   3.715747   2.462451
    14  H    2.713073   2.166498   2.713073   3.732991   3.061291
    15  H    3.422932   2.159491   2.696525   4.292011   3.711622
                    6          7          8          9         10
     6  H    0.000000
     7  H    3.023173   0.000000
     8  H    3.760141   2.456414   0.000000
     9  H    3.124986   2.467332   1.791768   0.000000
    10  H    2.558877   3.023173   1.779335   1.788946   0.000000
    11  C    2.704938   2.104834   2.691793   3.426617   2.704938
    12  I    5.181868   5.055024   5.177475   6.357393   5.181868
    13  H    3.052779   2.463081   3.711623   4.292011   3.731198
    14  H    2.495663   3.029937   3.061290   3.732991   2.495663
    15  H    3.731198   2.463081   2.462451   3.715747   3.052779
                   11         12         13         14         15
    11  C    0.000000
    12  I    3.093327   0.000000
    13  H    1.109078   2.904712   0.000000
    14  H    1.109191   2.878984   1.798481   0.000000
    15  H    1.109078   2.904713   1.798592   1.798481   0.000000
 Symmetry turned off by external request.
 Stoichiometry    C3H10IN
 Framework group  C1[X(C3H10IN)]
 Deg. of freedom    39
 Full point group                 C1      NOp   1
 Rotational constants (GHZ):           7.6115747           0.5746365           0.5484878
 Leave Link  202 at Sat Dec 13 16:33:47 2025, MaxMem=   536870912 cpu:               0.0 elap:               0.1
 (Enter D:\G16W\l601.exe)
 Copying SCF densities to generalized density rwf, IOpCl= 0 IROHF=0.

 **********************************************************************

            Population analysis using the SCF density.

 **********************************************************************

 Alpha  occ. eigenvalues --   -1.47596  -1.01064  -0.98644  -0.93206  -0.77110
 Alpha  occ. eigenvalues --   -0.70097  -0.69716  -0.65067  -0.60229  -0.58971
 Alpha  occ. eigenvalues --   -0.57456  -0.56878  -0.54260  -0.54199  -0.25478
 Alpha  occ. eigenvalues --   -0.25369  -0.25369
 Alpha virt. eigenvalues --   -0.04103   0.03217   0.04456   0.07609   0.10313
 Alpha virt. eigenvalues --    0.10408   0.10657   0.11157   0.13642   0.14017
 Alpha virt. eigenvalues --    0.15192   0.15335   0.18786   4.96890   4.96891
 Alpha virt. eigenvalues --    4.96946   4.97442   4.97442
          Condensed to atoms (all electrons):
               1          2          3          4          5          6
     1  C    4.349392   0.000000   0.000000   0.000000   0.000000   0.000000
     2  N    0.000000   5.032935   0.000000   0.000000   0.000000   0.000000
     3  C    0.000000   0.000000   4.349392   0.000000   0.000000   0.000000
     4  H    0.000000   0.000000   0.000000   0.832386   0.000000   0.000000
     5  H    0.000000   0.000000   0.000000   0.000000   0.805615   0.000000
     6  H    0.000000   0.000000   0.000000   0.000000   0.000000   0.803963
     7  H    0.000000   0.000000   0.000000   0.000000   0.000000   0.000000
     8  H    0.000000   0.000000   0.000000   0.000000   0.000000   0.000000
     9  H    0.000000   0.000000   0.000000   0.000000   0.000000   0.000000
    10  H    0.000000   0.000000   0.000000   0.000000   0.000000   0.000000
    11  C    0.000000   0.000000   0.000000   0.000000   0.000000   0.000000
    12  I    0.000000   0.000000   0.000000   0.000000   0.000000   0.000000
    13  H    0.000000   0.000000   0.000000   0.000000   0.000000   0.000000
    14  H    0.000000   0.000000   0.000000   0.000000   0.000000   0.000000
    15  H    0.000000   0.000000   0.000000   0.000000   0.000000   0.000000
               7          8          9         10         11         12
     1  C    0.000000   0.000000   0.000000   0.000000   0.000000   0.000000
     2  N    0.000000   0.000000   0.000000   0.000000   0.000000   0.000000
     3  C    0.000000   0.000000   0.000000   0.000000   0.000000   0.000000
     4  H    0.000000   0.000000   0.000000   0.000000   0.000000   0.000000
     5  H    0.000000   0.000000   0.000000   0.000000   0.000000   0.000000
     6  H    0.000000   0.000000   0.000000   0.000000   0.000000   0.000000
     7  H    0.713067   0.000000   0.000000   0.000000   0.000000   0.000000
     8  H    0.000000   0.805615   0.000000   0.000000   0.000000   0.000000
     9  H    0.000000   0.000000   0.832386   0.000000   0.000000   0.000000
    10  H    0.000000   0.000000   0.000000   0.803963   0.000000   0.000000
    11  C    0.000000   0.000000   0.000000   0.000000   4.329857   0.000000
    12  I    0.000000   0.000000   0.000000   0.000000   0.000000   7.969764
    13  H    0.000000   0.000000   0.000000   0.000000   0.000000   0.000000
    14  H    0.000000   0.000000   0.000000   0.000000   0.000000   0.000000
    15  H    0.000000   0.000000   0.000000   0.000000   0.000000   0.000000
              13         14         15
     1  C    0.000000   0.000000   0.000000
     2  N    0.000000   0.000000   0.000000
     3  C    0.000000   0.000000   0.000000
     4  H    0.000000   0.000000   0.000000
     5  H    0.000000   0.000000   0.000000
     6  H    0.000000   0.000000   0.000000
     7  H    0.000000   0.000000   0.000000
     8  H    0.000000   0.000000   0.000000
     9  H    0.000000   0.000000   0.000000
    10  H    0.000000   0.000000   0.000000
    11  C    0.000000   0.000000   0.000000
    12  I    0.000000   0.000000   0.000000
    13  H    0.791531   0.000000   0.000000
    14  H    0.000000   0.788603   0.000000
    15  H    0.000000   0.000000   0.791531
 Mulliken charges:
               1
     1  C   -0.349392
     2  N   -0.032935
     3  C   -0.349392
     4  H    0.167614
     5  H    0.194385
     6  H    0.196037
     7  H    0.286933
     8  H    0.194385
     9  H    0.167614
    10  H    0.196037
    11  C   -0.329857
    12  I   -0.969764
    13  H    0.208469
    14  H    0.211397
    15  H    0.208469
 Sum of Mulliken charges =   0.00000
 Mulliken charges with hydrogens summed into heavy atoms:
               1
     1  C    0.208644
     2  N    0.253998
     3  C    0.208644
    11  C    0.298478
    12  I   -0.969764
 APT charges:
               1
     1  C   -0.349392
     2  N   -0.032935
     3  C   -0.349392
     4  H    0.167614
     5  H    0.194385
     6  H    0.196037
     7  H    0.286933
     8  H    0.194385
     9  H    0.167614
    10  H    0.196037
    11  C   -0.329857
    12  I   -0.969764
    13  H    0.208469
    14  H    0.211397
    15  H    0.208469
 Sum of APT charges =   0.00000
 APT charges with hydrogens summed into heavy atoms:
               1
     1  C    0.208644
     2  N    0.253998
     3  C    0.208644
    11  C    0.298478
    12  I   -0.969764
 Charge=              0.0000 electrons
 Dipole moment (field-independent basis, Debye):
    X=             20.1990    Y=              0.0000    Z=             -1.2363  Tot=             20.2368
 N-N= 1.307817041952D+02 E-N=-1.847103556887D+02  KE=-5.399465818005D+01
  Exact polarizability:   0.000   0.000   0.000   0.000   0.000   0.000
 Approx polarizability:  35.071   0.000  22.014  -0.741   0.000  19.508
 Leave Link  601 at Sat Dec 13 16:33:47 2025, MaxMem=   536870912 cpu:               0.0 elap:               0.1
 (Enter D:\G16W\l9999.exe)

 This type of calculation cannot be archived.


 Standing in the middle of the road is very dangerous;
 you get knocked down by the traffic from both sides.
                                -- Margaret Thatcher
 Job cpu time:       0 days  0 hours  2 minutes 23.0 seconds.
 Elapsed time:       0 days  0 hours  1 minutes 43.3 seconds.
 File lengths (MBytes):  RWF=     11 Int=      0 D2E=      0 Chk=      4 Scr=      1
 Normal termination of Gaussian 16 at Sat Dec 13 16:33:47 2025.
