 Entering Gaussian System, Link 0=g16.exe
 Input=Me3N_Ultimate.gjf
 Output=Me3N_Ultimate.log
 Initial command:
 D:\G16W\l1.exe ".\Gau-10464.inp" "Me3N_Ultimate.log" /scrdir=".\"
 Entering Link 1 = D:\G16W\l1.exe PID=     27320.
  
 Copyright (c) 1988,1990,1992,1993,1995,1998,2003,2009,2016,
            Gaussian, Inc.  All Rights Reserved.
  
 This is part of the Gaussian(R) 16 program.  It is based on
 the Gaussian(R) 09 system (copyright 2009, Gaussian, Inc.),
 the Gaussian(R) 03 system (copyright 2003, Gaussian, Inc.),
 the Gaussian(R) 98 system (copyright 1998, Gaussian, Inc.),
 the Gaussian(R) 94 system (copyright 1995, Gaussian, Inc.),
 the Gaussian 92(TM) system (copyright 1992, Gaussian, Inc.),
 the Gaussian 90(TM) system (copyright 1990, Gaussian, Inc.),
 the Gaussian 88(TM) system (copyright 1988, Gaussian, Inc.),
 the Gaussian 86(TM) system (copyright 1986, Carnegie Mellon
 University), and the Gaussian 82(TM) system (copyright 1983,
 Carnegie Mellon University). Gaussian is a federally registered
 trademark of Gaussian, Inc.
  
 This software contains proprietary and confidential information,
 including trade secrets, belonging to Gaussian, Inc.
  
 This software is provided under written license and may be
 used, copied, transmitted, or stored only in accord with that
 written license.
  
 The following legend is applicable only to US Government
 contracts under FAR:
  
                    RESTRICTED RIGHTS LEGEND
  
 Use, reproduction and disclosure by the US Government is
 subject to restrictions as set forth in subparagraphs (a)
 and (c) of the Commercial Computer Software - Restricted
 Rights clause in FAR 52.227-19.
  
 Gaussian, Inc.
 340 Quinnipiac St., Bldg. 40, Wallingford CT 06492
  
  
 ---------------------------------------------------------------
 Warning -- This program may not be used in any manner that
 competes with the business of Gaussian, Inc. or will provide
 assistance to any competitor of Gaussian, Inc.  The licensee
 of this program is prohibited from giving any competitor of
 Gaussian, Inc. access to this program.  By using this program,
 the user acknowledges that Gaussian, Inc. is engaged in the
 business of creating and licensing software in the field of
 computational chemistry and represents and warrants to the
 licensee that it is not a competitor of Gaussian, Inc. and that
 it will not use this program in any manner prohibited above.
 ---------------------------------------------------------------
  

 Cite this work as:
 Gaussian 16, Revision A.03,
 M. J. Frisch, G. W. Trucks, H. B. Schlegel, G. E. Scuseria, 
 M. A. Robb, J. R. Cheeseman, G. Scalmani, V. Barone, 
 G. A. Petersson, H. Nakatsuji, X. Li, M. Caricato, A. V. Marenich, 
 J. Bloino, B. G. Janesko, R. Gomperts, B. Mennucci, H. P. Hratchian, 
 J. V. Ortiz, A. F. Izmaylov, J. L. Sonnenberg, D. Williams-Young, 
 F. Ding, F. Lipparini, F. Egidi, J. Goings, B. Peng, A. Petrone, 
 T. Henderson, D. Ranasinghe, V. G. Zakrzewski, J. Gao, N. Rega, 
 G. Zheng, W. Liang, M. Hada, M. Ehara, K. Toyota, R. Fukuda, 
 J. Hasegawa, M. Ishida, T. Nakajima, Y. Honda, O. Kitao, H. Nakai, 
 T. Vreven, K. Throssell, J. A. Montgomery, Jr., J. E. Peralta, 
 F. Ogliaro, M. J. Bearpark, J. J. Heyd, E. N. Brothers, K. N. Kudin, 
 V. N. Staroverov, T. A. Keith, R. Kobayashi, J. Normand, 
 K. Raghavachari, A. P. Rendell, J. C. Burant, S. S. Iyengar, 
 J. Tomasi, M. Cossi, J. M. Millam, M. Klene, C. Adamo, R. Cammi, 
 J. W. Ochterski, R. L. Martin, K. Morokuma, O. Farkas, 
 J. B. Foresman, and D. J. Fox, Gaussian, Inc., Wallingford CT, 2016.
 
 ******************************************
 Gaussian 16:  EM64W-G16RevA.03 17-Dec-2016
                13-Dec-2025 
 ******************************************
 %nproc=6
 Will use up to    6 processors via shared memory.
 %mem=4GB
 -------------------------------
 #PM7 opt(ts,calcall,noeig) freq
 -------------------------------
 1/5=1,10=4,11=1,18=20,26=1,38=1/1,3;
 2/9=110,12=2,17=6,18=5,40=1/2;
 3/5=2,25=1,41=4200000,71=2,140=1/1,2,3;
 4/35=1/1;
 5/5=2,35=1,38=5/2;
 8/6=4,10=90,11=11/1;
 11/6=1,8=1,9=11,15=111,16=1/1,2,10;
 10/6=1/2;
 6/7=2,8=2,9=2,10=2,18=1,28=1/1;
 7/10=1,25=1/1,2,3,16;
 1/5=1,10=4,11=1,18=20,26=1/3(3);
 2/9=110/2;
 7/8=1,9=1,25=1,44=-1/16;
 99//99;
 2/9=110/2;
 3/5=2,25=1,41=4200000,71=2,135=20,140=1/1,2,3;
 4/5=5,16=3,35=1/1;
 5/5=2,35=1,38=5/2;
 8/6=4,10=90,11=11/1;
 11/6=1,8=1,9=11,15=111,16=1/1,2,10;
 10/6=1/2;
 7/10=1,25=1/1,2,3,16;
 1/5=1,10=4,11=1,18=20,26=1/3(-8);
 2/9=110/2;
 6/7=2,8=2,9=2,10=2,18=1,19=2,28=1/1;
 7/8=1,9=1,25=1,44=-1/16;
 99//99;
 Leave Link    1 at Sat Dec 13 16:57:30 2025, MaxMem=   536870912 cpu:               0.0 elap:               0.1
 (Enter D:\G16W\l101.exe)
 --------------------
 title: Me3N_Ultimate
 --------------------
 Symbolic Z-matrix:
 Charge =  0 Multiplicity = 1
 C                    -1.26657  -0.48924   0.54332 
 N                     0.        0.        0. 
 C                     1.11774  -0.78396   0.52422 
 C                     0.17769   1.41708   0.31474 
 H                    -2.1083    0.07007   0.11983 
 H                    -1.31036  -0.40402   1.63526 
 H                    -1.42069  -1.53989   0.27305 
 H                     1.00712  -1.83999   0.2536 
 H                     2.06353  -0.44562   0.08641 
 H                     1.19819  -0.7141    1.61517 
 H                     0.20915   1.60163   1.39478 
 H                     1.10632   1.79559  -0.12689 
 H                    -0.63769   2.01117  -0.11291 
 C                     0.        0.        2.25 
 I                     0.        0.        4.9 
 H                     0.        1.        2.35 
 H                     0.86     -0.5       2.35 
 H                    -0.86     -0.5       2.35 
 
 Add virtual bond connecting atoms I15        and C14        Dist= 5.01D+00.
 Add virtual bond connecting atoms I15        and H16        Dist= 5.18D+00.
 Add virtual bond connecting atoms I15        and H17        Dist= 5.17D+00.
 Add virtual bond connecting atoms I15        and H18        Dist= 5.17D+00.
 ITRead=  0  0  0  0  0  0  0  0  0  0  0  0  0  0  0  0  0  0
 MicOpt= -1 -1 -1 -1 -1 -1 -1 -1 -1 -1 -1 -1 -1 -1 -1 -1 -1 -1
 NAtoms=     18 NQM=       18 NQMF=       0 NMMI=      0 NMMIF=      0
                NMic=       0 NMicF=      0.
                    Isotopes and Nuclear Properties:
 (Nuclear quadrupole moments (NQMom) in fm**2, nuclear magnetic moments (NMagM)
  in nuclear magnetons)

  Atom         1           2           3           4           5           6           7           8           9          10
 IAtWgt=          12          14          12          12           1           1           1           1           1           1
 AtmWgt=  12.0000000  14.0030740  12.0000000  12.0000000   1.0078250   1.0078250   1.0078250   1.0078250   1.0078250   1.0078250
 NucSpn=           0           2           0           0           1           1           1           1           1           1
 AtZEff=   0.0000000   0.0000000   0.0000000   0.0000000   0.0000000   0.0000000   0.0000000   0.0000000   0.0000000   0.0000000
 NQMom=    0.0000000   2.0440000   0.0000000   0.0000000   0.0000000   0.0000000   0.0000000   0.0000000   0.0000000   0.0000000
 NMagM=    0.0000000   0.4037610   0.0000000   0.0000000   2.7928460   2.7928460   2.7928460   2.7928460   2.7928460   2.7928460
 AtZNuc=   6.0000000   7.0000000   6.0000000   6.0000000   1.0000000   1.0000000   1.0000000   1.0000000   1.0000000   1.0000000

  Atom        11          12          13          14          15          16          17          18
 IAtWgt=           1           1           1          12         127           1           1           1
 AtmWgt=   1.0078250   1.0078250   1.0078250  12.0000000 126.9004000   1.0078250   1.0078250   1.0078250
 NucSpn=           1           1           1           0           5           1           1           1
 AtZEff=   0.0000000   0.0000000   0.0000000   0.0000000   0.0000000   0.0000000   0.0000000   0.0000000
 NQMom=    0.0000000   0.0000000   0.0000000   0.0000000 -71.0000000   0.0000000   0.0000000   0.0000000
 NMagM=    2.7928460   2.7928460   2.7928460   0.0000000   2.8132800   2.7928460   2.7928460   2.7928460
 AtZNuc=   1.0000000   1.0000000   1.0000000   6.0000000  53.0000000   1.0000000   1.0000000   1.0000000
 Leave Link  101 at Sat Dec 13 16:57:30 2025, MaxMem=   536870912 cpu:               0.0 elap:               0.4
 (Enter D:\G16W\l103.exe)

 GradGradGradGradGradGradGradGradGradGradGradGradGradGradGradGradGradGrad
 Berny optimization.
 Initialization pass.
                           ----------------------------
                           !    Initial Parameters    !
                           ! (Angstroms and Degrees)  !
 --------------------------                            --------------------------
 ! Name  Definition              Value          Derivative Info.                !
 --------------------------------------------------------------------------------
 ! R1    R(1,2)                  1.4624         calculate D2E/DX2 analytically  !
 ! R2    R(1,5)                  1.0957         calculate D2E/DX2 analytically  !
 ! R3    R(1,6)                  1.0961         calculate D2E/DX2 analytically  !
 ! R4    R(1,7)                  1.0957         calculate D2E/DX2 analytically  !
 ! R5    R(2,3)                  1.4624         calculate D2E/DX2 analytically  !
 ! R6    R(2,4)                  1.4624         calculate D2E/DX2 analytically  !
 ! R7    R(3,8)                  1.0957         calculate D2E/DX2 analytically  !
 ! R8    R(3,9)                  1.0957         calculate D2E/DX2 analytically  !
 ! R9    R(3,10)                 1.0961         calculate D2E/DX2 analytically  !
 ! R10   R(4,11)                 1.0961         calculate D2E/DX2 analytically  !
 ! R11   R(4,12)                 1.0957         calculate D2E/DX2 analytically  !
 ! R12   R(4,13)                 1.0957         calculate D2E/DX2 analytically  !
 ! R13   R(6,18)                 0.8502         calculate D2E/DX2 analytically  !
 ! R14   R(10,17)                0.8368         calculate D2E/DX2 analytically  !
 ! R15   R(14,15)                2.65           calculate D2E/DX2 analytically  !
 ! R16   R(14,16)                1.005          calculate D2E/DX2 analytically  !
 ! R17   R(14,17)                0.9998         calculate D2E/DX2 analytically  !
 ! R18   R(14,18)                0.9998         calculate D2E/DX2 analytically  !
 ! R19   R(15,16)                2.7391         calculate D2E/DX2 analytically  !
 ! R20   R(15,17)                2.7372         calculate D2E/DX2 analytically  !
 ! R21   R(15,18)                2.7372         calculate D2E/DX2 analytically  !
 ! A1    A(2,1,5)              110.5454         calculate D2E/DX2 analytically  !
 ! A2    A(2,1,6)              112.2521         calculate D2E/DX2 analytically  !
 ! A3    A(2,1,7)              110.5454         calculate D2E/DX2 analytically  !
 ! A4    A(5,1,6)              108.3384         calculate D2E/DX2 analytically  !
 ! A5    A(5,1,7)              106.6216         calculate D2E/DX2 analytically  !
 ! A6    A(6,1,7)              108.3385         calculate D2E/DX2 analytically  !
 ! A7    A(1,2,3)              110.4524         calculate D2E/DX2 analytically  !
 ! A8    A(1,2,4)              110.4523         calculate D2E/DX2 analytically  !
 ! A9    A(3,2,4)              110.4523         calculate D2E/DX2 analytically  !
 ! A10   A(2,3,8)              110.5455         calculate D2E/DX2 analytically  !
 ! A11   A(2,3,9)              110.5454         calculate D2E/DX2 analytically  !
 ! A12   A(2,3,10)             112.2521         calculate D2E/DX2 analytically  !
 ! A13   A(8,3,9)              106.6215         calculate D2E/DX2 analytically  !
 ! A14   A(8,3,10)             108.3384         calculate D2E/DX2 analytically  !
 ! A15   A(9,3,10)             108.3384         calculate D2E/DX2 analytically  !
 ! A16   A(2,4,11)             112.2521         calculate D2E/DX2 analytically  !
 ! A17   A(2,4,12)             110.5454         calculate D2E/DX2 analytically  !
 ! A18   A(2,4,13)             110.5455         calculate D2E/DX2 analytically  !
 ! A19   A(11,4,12)            108.3384         calculate D2E/DX2 analytically  !
 ! A20   A(11,4,13)            108.3384         calculate D2E/DX2 analytically  !
 ! A21   A(12,4,13)            106.6215         calculate D2E/DX2 analytically  !
 ! A22   A(1,6,18)             143.8511         calculate D2E/DX2 analytically  !
 ! A23   A(3,10,17)            149.3907         calculate D2E/DX2 analytically  !
 ! A24   A(16,14,17)           119.1873         calculate D2E/DX2 analytically  !
 ! A25   A(16,14,18)           119.1873         calculate D2E/DX2 analytically  !
 ! A26   A(17,14,18)           118.6718         calculate D2E/DX2 analytically  !
 ! A27   A(16,15,17)            36.8105         calculate D2E/DX2 analytically  !
 ! A28   A(16,15,18)            36.8105         calculate D2E/DX2 analytically  !
 ! A29   A(17,15,18)            36.6242         calculate D2E/DX2 analytically  !
 ! A30   A(10,17,14)           112.8158         calculate D2E/DX2 analytically  !
 ! A31   A(6,18,14)            108.3664         calculate D2E/DX2 analytically  !
 ! A32   A(6,18,15)            158.2738         calculate D2E/DX2 analytically  !
 ! A33   L(10,17,15,1,-1)      186.2412         calculate D2E/DX2 analytically  !
 ! A34   L(10,17,15,1,-2)      175.9681         calculate D2E/DX2 analytically  !
 ! D1    D(5,1,2,3)           -177.6666         calculate D2E/DX2 analytically  !
 ! D2    D(5,1,2,4)             59.8464         calculate D2E/DX2 analytically  !
 ! D3    D(6,1,2,3)             61.2435         calculate D2E/DX2 analytically  !
 ! D4    D(6,1,2,4)            -61.2436         calculate D2E/DX2 analytically  !
 ! D5    D(7,1,2,3)            -59.8465         calculate D2E/DX2 analytically  !
 ! D6    D(7,1,2,4)            177.6664         calculate D2E/DX2 analytically  !
 ! D7    D(2,1,6,18)           -40.6114         calculate D2E/DX2 analytically  !
 ! D8    D(5,1,6,18)          -162.9619         calculate D2E/DX2 analytically  !
 ! D9    D(7,1,6,18)            81.739          calculate D2E/DX2 analytically  !
 ! D10   D(1,2,3,8)             59.8465         calculate D2E/DX2 analytically  !
 ! D11   D(1,2,3,9)            177.6665         calculate D2E/DX2 analytically  !
 ! D12   D(1,2,3,10)           -61.2436         calculate D2E/DX2 analytically  !
 ! D13   D(4,2,3,8)           -177.6665         calculate D2E/DX2 analytically  !
 ! D14   D(4,2,3,9)            -59.8465         calculate D2E/DX2 analytically  !
 ! D15   D(4,2,3,10)            61.2435         calculate D2E/DX2 analytically  !
 ! D16   D(1,2,4,11)            61.2437         calculate D2E/DX2 analytically  !
 ! D17   D(1,2,4,12)          -177.6664         calculate D2E/DX2 analytically  !
 ! D18   D(1,2,4,13)           -59.8463         calculate D2E/DX2 analytically  !
 ! D19   D(3,2,4,11)           -61.2434         calculate D2E/DX2 analytically  !
 ! D20   D(3,2,4,12)            59.8466         calculate D2E/DX2 analytically  !
 ! D21   D(3,2,4,13)           177.6666         calculate D2E/DX2 analytically  !
 ! D22   D(2,3,10,17)           14.0351         calculate D2E/DX2 analytically  !
 ! D23   D(8,3,10,17)         -108.3154         calculate D2E/DX2 analytically  !
 ! D24   D(9,3,10,17)          136.3856         calculate D2E/DX2 analytically  !
 ! D25   D(1,6,18,14)           51.3628         calculate D2E/DX2 analytically  !
 ! D26   D(1,6,18,15)          145.3252         calculate D2E/DX2 analytically  !
 ! D27   D(3,10,15,16)         -42.8195         calculate D2E/DX2 analytically  !
 ! D28   D(3,10,15,18)          18.6308         calculate D2E/DX2 analytically  !
 ! D29   D(3,10,17,14)          -8.2005         calculate D2E/DX2 analytically  !
 ! D30   D(16,14,17,10)       -100.9513         calculate D2E/DX2 analytically  !
 ! D31   D(18,14,17,10)         98.6386         calculate D2E/DX2 analytically  !
 ! D32   D(16,14,18,6)          77.2868         calculate D2E/DX2 analytically  !
 ! D33   D(17,14,18,6)        -122.303          calculate D2E/DX2 analytically  !
 ! D34   D(16,15,18,6)         -68.8348         calculate D2E/DX2 analytically  !
 ! D35   D(17,15,18,6)        -132.5889         calculate D2E/DX2 analytically  !
 --------------------------------------------------------------------------------
 Trust Radius=3.00D-01 FncErr=1.00D-07 GrdErr=1.00D-07 EigMax=2.50D+02 EigMin=1.00D-04
 Number of steps in this run=    100 maximum allowed number of steps=    108.
 Search for a saddle point of order  1.
 GradGradGradGradGradGradGradGradGradGradGradGradGradGradGradGradGradGrad

 Leave Link  103 at Sat Dec 13 16:57:31 2025, MaxMem=   536870912 cpu:               0.0 elap:               0.1
 (Enter D:\G16W\l202.exe)
                          Input orientation:                          
 ---------------------------------------------------------------------
 Center     Atomic      Atomic             Coordinates (Angstroms)
 Number     Number       Type             X           Y           Z
 ---------------------------------------------------------------------
      1          6           0       -1.266569   -0.489237    0.543315
      2          7           0        0.000000    0.000000    0.000000
      3          6           0        1.117740   -0.783963    0.524215
      4          6           0        0.177687    1.417077    0.314741
      5          1           0       -2.108296    0.070068    0.119830
      6          1           0       -1.310361   -0.404019    1.635264
      7          1           0       -1.420694   -1.539888    0.273049
      8          1           0        1.007124   -1.839993    0.253602
      9          1           0        2.063527   -0.445615    0.086409
     10          1           0        1.198189   -0.714102    1.615167
     11          1           0        0.209154    1.601629    1.394778
     12          1           0        1.106319    1.795588   -0.126889
     13          1           0       -0.637687    2.011167   -0.112914
     14          6           0        0.000000    0.000000    2.250000
     15         53           0        0.000000    0.000000    4.900000
     16          1           0        0.000000    1.000000    2.350000
     17          1           0        0.860000   -0.500000    2.350000
     18          1           0       -0.860000   -0.500000    2.350000
 ---------------------------------------------------------------------
                    Distance matrix (angstroms):
                    1          2          3          4          5
     1  C    0.000000
     2  N    1.462444   0.000000
     3  C    2.402532   1.462444   0.000000
     4  C    2.402531   1.462444   2.402531   0.000000
     5  H    1.095749   2.112861   3.361578   2.660478   0.000000
     6  H    1.096144   2.134096   2.697121   2.697121   1.777075
     7  H    1.095749   2.112861   2.660480   3.361577   1.757336
     8  H    2.660481   2.112862   1.095749   3.361578   3.656784
     9  H    3.361577   2.112861   1.095749   2.660479   4.203707
    10  H    2.697122   2.134096   1.096143   2.697121   3.712654
    11  H    2.697122   2.134096   2.697120   1.096144   3.056427
    12  H    3.361576   2.112860   2.660479   1.095748   3.656780
    13  H    2.660478   2.112862   3.361578   1.095749   2.446370
    14  C    2.180900   2.250000   2.200517   2.405184   2.997907
    15  I    4.563360   4.900000   4.583823   4.802529   5.224925
    16  H    2.661979   2.553919   2.786639   2.085140   3.206765
    17  H    2.790434   2.551882   1.865625   2.878023   3.756250
    18  H    1.851897   2.551882   2.706581   2.982325   2.618564
                    6          7          8          9         10
     6  H    0.000000
     7  H    1.777076   0.000000
     8  H    3.056427   2.446373   0.000000
     9  H    3.712654   3.656782   1.757335   0.000000
    10  H    2.527723   3.056428   1.777074   1.777074   0.000000
    11  H    2.527723   3.712655   3.712654   3.056425   2.527721
    12  H    3.712653   4.203706   3.656782   2.446372   3.056427
    13  H    3.056425   3.656782   4.203708   3.656783   3.712653
    14  C    1.502724   2.880618   2.895769   3.022886   1.532519
    15  I    3.541014   5.079203   5.097930   5.256174   3.568715
    16  H    2.049186   3.575350   3.670796   3.387003   2.216706
    17  H    2.287035   3.255251   2.492410   2.564230   0.836774
    18  H    0.850227   2.389450   3.110726   3.697811   2.195897
                   11         12         13         14         15
    11  H    0.000000
    12  H    1.777075   0.000000
    13  H    1.777075   1.757335   0.000000
    14  C    1.827666   3.177684   3.167775   0.000000
    15  I    3.859474   5.451393   5.438818   2.650000   0.000000
    16  H    1.148108   2.826991   2.737708   1.004988   2.739069
    17  H    2.398519   3.386056   3.822953   0.999800   2.737170
    18  H    2.544088   3.907827   3.524390   0.999800   2.737170
                   16         17         18
    16  H    0.000000
    17  H    1.729046   0.000000
    18  H    1.729046   1.720000   0.000000
 Stoichiometry    C4H12IN
 Framework group  C1[X(C4H12IN)]
 Deg. of freedom    48
 Full point group                 C1      NOp   1
 Largest Abelian subgroup         C1      NOp   1
 Largest concise Abelian subgroup C1      NOp   1
                         Standard orientation:                         
 ---------------------------------------------------------------------
 Center     Atomic      Atomic             Coordinates (Angstroms)
 Number     Number       Type             X           Y           Z
 ---------------------------------------------------------------------
      1          6           0       -2.502891   -1.137007   -0.798610
      2          7           0       -3.058494    0.000726   -0.066757
      3          6           0       -2.525041    1.256608   -0.593001
      4          6           0       -2.767968   -0.119272    1.361506
      5          1           0       -2.932812   -2.076317   -0.433193
      6          1           0       -1.412372   -1.197716   -0.705806
      7          1           0       -2.755125   -1.069928   -1.862821
      8          1           0       -2.777677    1.367366   -1.653459
      9          1           0       -2.971569    2.111788   -0.073438
     10          1           0       -1.435677    1.320626   -0.489481
     11          1           0       -1.691261   -0.126947    1.566871
     12          1           0       -3.218929    0.710800    1.916733
     13          1           0       -3.202724   -1.040012    1.766340
     14          6           0       -0.808818    0.000311   -0.028580
     15         53           0        1.840800   -0.000178    0.016383
     16          1           0       -0.725470   -0.207013    0.951251
     17          1           0       -0.703384    0.945263   -0.337691
     18          1           0       -0.697644   -0.737372   -0.694211
 ---------------------------------------------------------------------
 Rotational constants (GHZ):           4.8102290           0.5569749           0.5566200
 Leave Link  202 at Sat Dec 13 16:57:31 2025, MaxMem=   536870912 cpu:               0.0 elap:               0.1
 (Enter D:\G16W\l301.exe)
 Standard basis: VSTO-6G (5D, 7F)
 Ernie: Thresh=  0.10000D-02 Tol=  0.10000D-05 Strict=F.
 EHB=         0.000000000 Number of Hydrogen Bonds=     0
  NNHCO=     0 NNPyr=     0 NCTC=     0               EPep=         0.000000000
    EC=       137.649139061  ECS=         3.145765167   EG=         0.581697473
   EHC=         0.000658770  EAt=       -36.754028298  AtH=         2.306420954
 EPDDG=         0.000000000  ECC=       141.377260470 EAtT=        39.060449251
  EHyb=         0.000000000
 There are    42 symmetry adapted cartesian basis functions of A   symmetry.
 There are    41 symmetry adapted basis functions of A   symmetry.
    41 basis functions,   252 primitive gaussians,    42 cartesian basis functions
    20 alpha electrons       20 beta electrons
       nuclear repulsion energy       180.4377097213 Hartrees.
 IExCor=    0 DFT=F Ex=HF Corr=None ExCW=0 ScaHFX=  1.000000
 ScaDFX=  1.000000  1.000000  1.000000  1.000000 ScalE2=  1.000000  1.000000
 IRadAn=      5 IRanWt=     -1 IRanGd=            0 ICorTp=0 IEmpDi=251
 Integral buffers will be    131072 words long.
 Regular integral format.
 Two-electron integral symmetry is turned off.
 R6Disp:  PM7 Dispersion energy=       -0.0026674156 Hartrees.
 Nuclear repulsion after empirical dispersion term =      180.4350423056 Hartrees.
 Leave Link  301 at Sat Dec 13 16:57:31 2025, MaxMem=   536870912 cpu:               0.0 elap:               0.1
 (Enter D:\G16W\l302.exe)
 Do NDO integrals.
 NPDir=0 NMtPBC=     1 NCelOv=     1 NCel=       1 NClECP=     1 NCelD=      1
         NCelK=      1 NCelE2=     1 NClLst=     1 CellRange=     0.0.
 One-electron integrals computed using PRISM.
 NBasis=    41 RedAO= F EigKep=  0.00D+00  NBF=    41
 NBsUse=    41 1.00D-04 EigRej=  0.00D+00 NBFU=    41
 Leave Link  302 at Sat Dec 13 16:57:31 2025, MaxMem=   536870912 cpu:               0.0 elap:               0.2
 (Enter D:\G16W\l303.exe)
 DipDrv:  MaxL=1.
 Leave Link  303 at Sat Dec 13 16:57:31 2025, MaxMem=   536870912 cpu:               0.0 elap:               0.1
 (Enter D:\G16W\l401.exe)
 Nonelectrostatic core Hamiltonian diagonalized for initial guess.
 JPrj=0 DoOrth=F DoCkMO=F.
 Leave Link  401 at Sat Dec 13 16:57:31 2025, MaxMem=   536870912 cpu:               0.0 elap:               0.1
 (Enter D:\G16W\l502.exe)
 Keep J ints in memory in canonical form, NReq=1852917.
 FoFCou: FMM=F IPFlag=           0 FMFlag=           0 FMFlg1=           0
         NFxFlg=           0 DoJE=F BraDBF=F KetDBF=F FulRan=T
         wScrn=  0.000000 ICntrl=       600 IOpCl=  2 I1Cent=           0 NGrid=           0
         NMat0=    1 NMatS0=    107 NMatT0=    0 NMatD0=    1 NMtDS0=    0 NMtDT0=    0
 Symmetry not used in FoFCou.
 Two-electron integral symmetry not used.
 Closed shell SCF:
 Using DIIS extrapolation, IDIIS=  1040.
 Overlap will be assumed to be unity.
 NGot=   536870912 LenX=   536801538 LenY=   536799333
 Requested convergence on RMS density matrix=1.00D-08 within 128 cycles.
 Requested convergence on MAX density matrix=1.00D-06.
 Requested convergence on             energy=1.00D-06.
 No special actions if energy rises.

 Cycle   1  Pass 1  IDiag  1:
 E= 0.954237778037992    
 DIIS: error= 3.95D-02 at cycle   1 NSaved=   1.
 NSaved= 1 IEnMin= 1 EnMin= 0.954237778037992     IErMin= 1 ErrMin= 3.95D-02
 ErrMax= 3.95D-02  0.00D+00 EMaxC= 1.00D-01 BMatC= 1.01D-01 BMatP= 1.01D-01
 IDIUse=3 WtCom= 6.05D-01 WtEn= 3.95D-01
 Coeff-Com:  0.100D+01
 Coeff-En:   0.100D+01
 Coeff:      0.100D+01
 GapD=    2.000 DampG=2.000 DampE=0.500 DampFc=1.0000 IDamp=-1.
 RMSDP=1.69D-02 MaxDP=1.35D-01              OVMax= 0.00D+00

 Cycle   2  Pass 1  IDiag  1:
 E= 0.522935616749606     Delta-E=       -0.431302161288 Rises=F Damp=F
 DIIS: error= 1.92D-02 at cycle   2 NSaved=   2.
 NSaved= 2 IEnMin= 2 EnMin= 0.522935616749606     IErMin= 2 ErrMin= 1.92D-02
 ErrMax= 1.92D-02  0.00D+00 EMaxC= 1.00D-01 BMatC= 2.06D-02 BMatP= 1.01D-01
 IDIUse=3 WtCom= 8.08D-01 WtEn= 1.92D-01
 Coeff-Com: -0.489D+00 0.149D+01
 Coeff-En:   0.000D+00 0.100D+01
 Coeff:     -0.395D+00 0.140D+01
 RMSDP=1.08D-02 MaxDP=1.09D-01 DE=-4.31D-01 OVMax= 0.00D+00

 Cycle   3  Pass 1  IDiag  3:
 E= 0.405857366850597     Delta-E=       -0.117078249899 Rises=F Damp=F
 DIIS: error= 7.05D-03 at cycle   3 NSaved=   3.
 NSaved= 3 IEnMin= 3 EnMin= 0.405857366850597     IErMin= 3 ErrMin= 7.05D-03
 ErrMax= 7.05D-03  0.00D+00 EMaxC= 1.00D-01 BMatC= 3.07D-03 BMatP= 2.06D-02
 IDIUse=3 WtCom= 9.30D-01 WtEn= 7.05D-02
 Coeff-Com:  0.190D+00-0.978D+00 0.179D+01
 Coeff-En:   0.000D+00 0.000D+00 0.100D+01
 Coeff:      0.177D+00-0.910D+00 0.173D+01
 Gap=     0.260 Goal=   None    Shift=    0.000
 RMSDP=5.85D-03 MaxDP=4.97D-02 DE=-1.17D-01 OVMax= 4.35D-02

 Cycle   4  Pass 1  IDiag  3:
 E= 0.385891948436296     Delta-E=       -0.019965418414 Rises=F Damp=F
 DIIS: error= 1.06D-03 at cycle   4 NSaved=   4.
 NSaved= 4 IEnMin= 4 EnMin= 0.385891948436296     IErMin= 4 ErrMin= 1.06D-03
 ErrMax= 1.06D-03  0.00D+00 EMaxC= 1.00D-01 BMatC= 1.13D-04 BMatP= 3.07D-03
 IDIUse=3 WtCom= 9.89D-01 WtEn= 1.06D-02
 Coeff-Com:  0.829D-03 0.642D-01-0.282D+00 0.122D+01
 Coeff-En:   0.000D+00 0.000D+00 0.000D+00 0.100D+01
 Coeff:      0.821D-03 0.636D-01-0.279D+00 0.121D+01
 Gap=     0.263 Goal=   None    Shift=    0.000
 RMSDP=8.01D-04 MaxDP=6.38D-03 DE=-2.00D-02 OVMax= 7.91D-03

 Cycle   5  Pass 1  IDiag  3:
 E= 0.385337202468094     Delta-E=       -0.000554745968 Rises=F Damp=F
 DIIS: error= 3.43D-04 at cycle   5 NSaved=   5.
 NSaved= 5 IEnMin= 5 EnMin= 0.385337202468094     IErMin= 5 ErrMin= 3.43D-04
 ErrMax= 3.43D-04  0.00D+00 EMaxC= 1.00D-01 BMatC= 9.72D-06 BMatP= 1.13D-04
 IDIUse=3 WtCom= 9.97D-01 WtEn= 3.43D-03
 Coeff-Com: -0.148D-01 0.734D-01-0.128D+00-0.152D+00 0.122D+01
 Coeff-En:   0.000D+00 0.000D+00 0.000D+00 0.000D+00 0.100D+01
 Coeff:     -0.147D-01 0.732D-01-0.127D+00-0.151D+00 0.122D+01
 Gap=     0.261 Goal=   None    Shift=    0.000
 RMSDP=2.83D-04 MaxDP=2.49D-03 DE=-5.55D-04 OVMax= 3.79D-03

 Cycle   6  Pass 1  IDiag  3:
 E= 0.385278375200954     Delta-E=       -0.000058827267 Rises=F Damp=F
 DIIS: error= 1.11D-04 at cycle   6 NSaved=   6.
 NSaved= 6 IEnMin= 6 EnMin= 0.385278375200954     IErMin= 6 ErrMin= 1.11D-04
 ErrMax= 1.11D-04  0.00D+00 EMaxC= 1.00D-01 BMatC= 7.50D-07 BMatP= 9.72D-06
 IDIUse=3 WtCom= 9.99D-01 WtEn= 1.11D-03
 Coeff-Com:  0.590D-02-0.309D-01 0.577D-01 0.162D-01-0.508D+00 0.146D+01
 Coeff-En:   0.000D+00 0.000D+00 0.000D+00 0.000D+00 0.000D+00 0.100D+01
 Coeff:      0.590D-02-0.309D-01 0.576D-01 0.162D-01-0.507D+00 0.146D+01
 Gap=     0.261 Goal=   None    Shift=    0.000
 RMSDP=1.04D-04 MaxDP=8.74D-04 DE=-5.88D-05 OVMax= 1.94D-03

 Cycle   7  Pass 1  IDiag  3:
 E= 0.385272326448444     Delta-E=       -0.000006048753 Rises=F Damp=F
 DIIS: error= 3.27D-05 at cycle   7 NSaved=   7.
 NSaved= 7 IEnMin= 7 EnMin= 0.385272326448444     IErMin= 7 ErrMin= 3.27D-05
 ErrMax= 3.27D-05  0.00D+00 EMaxC= 1.00D-01 BMatC= 6.62D-08 BMatP= 7.50D-07
 IDIUse=1 WtCom= 1.00D+00 WtEn= 0.00D+00
 Coeff-Com: -0.102D-02 0.616D-02-0.118D-01-0.647D-02 0.143D+00-0.586D+00
 Coeff-Com:  0.146D+01
 Coeff:     -0.102D-02 0.616D-02-0.118D-01-0.647D-02 0.143D+00-0.586D+00
 Coeff:      0.146D+01
 Gap=     0.260 Goal=   None    Shift=    0.000
 RMSDP=3.45D-05 MaxDP=3.27D-04 DE=-6.05D-06 OVMax= 6.82D-04

 Cycle   8  Pass 1  IDiag  3:
 E= 0.385271736160547     Delta-E=       -0.000000590288 Rises=F Damp=F
 DIIS: error= 1.00D-05 at cycle   8 NSaved=   8.
 NSaved= 8 IEnMin= 8 EnMin= 0.385271736160547     IErMin= 8 ErrMin= 1.00D-05
 ErrMax= 1.00D-05  0.00D+00 EMaxC= 1.00D-01 BMatC= 6.89D-09 BMatP= 6.62D-08
 IDIUse=1 WtCom= 1.00D+00 WtEn= 0.00D+00
 Coeff-Com: -0.146D-03 0.562D-03-0.129D-02 0.139D-02-0.258D-02 0.681D-01
 Coeff-Com: -0.485D+00 0.142D+01
 Coeff:     -0.146D-03 0.562D-03-0.129D-02 0.139D-02-0.258D-02 0.681D-01
 Coeff:     -0.485D+00 0.142D+01
 Gap=     0.260 Goal=   None    Shift=    0.000
 RMSDP=1.26D-05 MaxDP=1.31D-04 DE=-5.90D-07 OVMax= 2.21D-04

 Cycle   9  Pass 1  IDiag  3:
 E= 0.385271663449572     Delta-E=       -0.000000072711 Rises=F Damp=F
 DIIS: error= 3.46D-06 at cycle   9 NSaved=   9.
 NSaved= 9 IEnMin= 9 EnMin= 0.385271663449572     IErMin= 9 ErrMin= 3.46D-06
 ErrMax= 3.46D-06  0.00D+00 EMaxC= 1.00D-01 BMatC= 8.50D-10 BMatP= 6.89D-09
 IDIUse=1 WtCom= 1.00D+00 WtEn= 0.00D+00
 Coeff-Com:  0.113D-03-0.592D-03 0.132D-02-0.783D-03-0.687D-02 0.106D-01
 Coeff-Com:  0.888D-01-0.619D+00 0.153D+01
 Coeff:      0.113D-03-0.592D-03 0.132D-02-0.783D-03-0.687D-02 0.106D-01
 Coeff:      0.888D-01-0.619D+00 0.153D+01
 Gap=     0.260 Goal=   None    Shift=    0.000
 RMSDP=5.61D-06 MaxDP=6.59D-05 DE=-7.27D-08 OVMax= 1.23D-04

 Cycle  10  Pass 1  IDiag  3:
 E= 0.385271651951200     Delta-E=       -0.000000011498 Rises=F Damp=F
 DIIS: error= 1.70D-06 at cycle  10 NSaved=  10.
 NSaved=10 IEnMin=10 EnMin= 0.385271651951200     IErMin=10 ErrMin= 1.70D-06
 ErrMax= 1.70D-06  0.00D+00 EMaxC= 1.00D-01 BMatC= 1.36D-10 BMatP= 8.50D-10
 IDIUse=1 WtCom= 1.00D+00 WtEn= 0.00D+00
 Coeff-Com: -0.300D-04 0.203D-03-0.475D-03 0.137D-03 0.347D-02-0.862D-02
 Coeff-Com: -0.940D-02 0.216D+00-0.871D+00 0.167D+01
 Coeff:     -0.300D-04 0.203D-03-0.475D-03 0.137D-03 0.347D-02-0.862D-02
 Coeff:     -0.940D-02 0.216D+00-0.871D+00 0.167D+01
 Gap=     0.260 Goal=   None    Shift=    0.000
 RMSDP=2.66D-06 MaxDP=3.21D-05 DE=-1.15D-08 OVMax= 6.50D-05

 Cycle  11  Pass 1  IDiag  3:
 E= 0.385271649626333     Delta-E=       -0.000000002325 Rises=F Damp=F
 DIIS: error= 8.67D-07 at cycle  11 NSaved=  11.
 NSaved=11 IEnMin=11 EnMin= 0.385271649626333     IErMin=11 ErrMin= 8.67D-07
 ErrMax= 8.67D-07  0.00D+00 EMaxC= 1.00D-01 BMatC= 2.72D-11 BMatP= 1.36D-10
 IDIUse=1 WtCom= 1.00D+00 WtEn= 0.00D+00
 Coeff-Com: -0.118D-04 0.503D-04-0.835D-04 0.405D-04 0.133D-03-0.289D-03
 Coeff-Com: -0.836D-04-0.298D-01 0.218D+00-0.957D+00 0.177D+01
 Coeff:     -0.118D-04 0.503D-04-0.835D-04 0.405D-04 0.133D-03-0.289D-03
 Coeff:     -0.836D-04-0.298D-01 0.218D+00-0.957D+00 0.177D+01
 Gap=     0.260 Goal=   None    Shift=    0.000
 RMSDP=1.58D-06 MaxDP=1.94D-05 DE=-2.32D-09 OVMax= 3.92D-05

 Cycle  12  Pass 1  IDiag  3:
 E= 0.385271649093397     Delta-E=       -0.000000000533 Rises=F Damp=F
 DIIS: error= 2.90D-07 at cycle  12 NSaved=  12.
 NSaved=12 IEnMin=12 EnMin= 0.385271649093397     IErMin=12 ErrMin= 2.90D-07
 ErrMax= 2.90D-07  0.00D+00 EMaxC= 1.00D-01 BMatC= 3.15D-12 BMatP= 2.72D-11
 IDIUse=1 WtCom= 1.00D+00 WtEn= 0.00D+00
 Coeff-Com:  0.205D-05-0.111D-04 0.264D-04-0.716D-05-0.219D-03 0.709D-03
 Coeff-Com:  0.733D-03-0.103D-01 0.203D-01 0.990D-01-0.541D+00 0.143D+01
 Coeff:      0.205D-05-0.111D-04 0.264D-04-0.716D-05-0.219D-03 0.709D-03
 Coeff:      0.733D-03-0.103D-01 0.203D-01 0.990D-01-0.541D+00 0.143D+01
 Gap=     0.260 Goal=   None    Shift=    0.000
 RMSDP=4.39D-07 MaxDP=5.55D-06 DE=-5.33D-10 OVMax= 1.09D-05

 Cycle  13  Pass 1  IDiag  3:
 E= 0.385271649049741     Delta-E=       -0.000000000044 Rises=F Damp=F
 DIIS: error= 8.76D-08 at cycle  13 NSaved=  13.
 NSaved=13 IEnMin=13 EnMin= 0.385271649049741     IErMin=13 ErrMin= 8.76D-08
 ErrMax= 8.76D-08  0.00D+00 EMaxC= 1.00D-01 BMatC= 3.99D-13 BMatP= 3.15D-12
 IDIUse=1 WtCom= 1.00D+00 WtEn= 0.00D+00
 Coeff-Com:  0.392D-06-0.105D-06-0.319D-05 0.483D-05 0.332D-04-0.797D-04
 Coeff-Com: -0.479D-03 0.491D-02-0.177D-01 0.261D-01 0.495D-01-0.504D+00
 Coeff-Com:  0.144D+01
 Coeff:      0.392D-06-0.105D-06-0.319D-05 0.483D-05 0.332D-04-0.797D-04
 Coeff:     -0.479D-03 0.491D-02-0.177D-01 0.261D-01 0.495D-01-0.504D+00
 Coeff:      0.144D+01
 Gap=     0.260 Goal=   None    Shift=    0.000
 RMSDP=1.17D-07 MaxDP=1.40D-06 DE=-4.37D-11 OVMax= 2.61D-06

 Cycle  14  Pass 1  IDiag  3:
 E= 0.385271649043887     Delta-E=       -0.000000000006 Rises=F Damp=F
 DIIS: error= 3.98D-08 at cycle  14 NSaved=  14.
 NSaved=14 IEnMin=14 EnMin= 0.385271649043887     IErMin=14 ErrMin= 3.98D-08
 ErrMax= 3.98D-08  0.00D+00 EMaxC= 1.00D-01 BMatC= 4.81D-14 BMatP= 3.99D-13
 IDIUse=1 WtCom= 1.00D+00 WtEn= 0.00D+00
 Coeff-Com: -0.622D-07 0.317D-06-0.449D-06 0.139D-05-0.839D-05 0.532D-05
 Coeff-Com:  0.110D-03-0.692D-03 0.201D-02-0.400D-02 0.409D-02 0.652D-01
 Coeff-Com: -0.534D+00 0.147D+01
 Coeff:     -0.622D-07 0.317D-06-0.449D-06 0.139D-05-0.839D-05 0.532D-05
 Coeff:      0.110D-03-0.692D-03 0.201D-02-0.400D-02 0.409D-02 0.652D-01
 Coeff:     -0.534D+00 0.147D+01
 Gap=     0.260 Goal=   None    Shift=    0.000
 RMSDP=3.50D-08 MaxDP=4.77D-07 DE=-5.85D-12 OVMax= 5.15D-07

 Cycle  15  Pass 1  IDiag  3:
 E= 0.385271649044256     Delta-E=        0.000000000000 Rises=F Damp=F
 DIIS: error= 1.44D-08 at cycle  15 NSaved=  15.
 NSaved=15 IEnMin=14 EnMin= 0.385271649043887     IErMin=15 ErrMin= 1.44D-08
 ErrMax= 1.44D-08  0.00D+00 EMaxC= 1.00D-01 BMatC= 4.63D-15 BMatP= 4.81D-14
 IDIUse=1 WtCom= 1.00D+00 WtEn= 0.00D+00
 Coeff-Com: -0.108D-07 0.596D-08 0.385D-07-0.993D-06 0.498D-05-0.412D-05
 Coeff-Com: -0.221D-04 0.127D-03-0.396D-03 0.162D-02-0.635D-02 0.182D-02
 Coeff-Com:  0.132D+00-0.659D+00 0.153D+01
 Coeff:     -0.108D-07 0.596D-08 0.385D-07-0.993D-06 0.498D-05-0.412D-05
 Coeff:     -0.221D-04 0.127D-03-0.396D-03 0.162D-02-0.635D-02 0.182D-02
 Coeff:      0.132D+00-0.659D+00 0.153D+01
 Gap=     0.260 Goal=   None    Shift=    0.000
 RMSDP=1.16D-08 MaxDP=2.02D-07 DE= 3.69D-13 OVMax= 1.76D-07

 Cycle  16  Pass 1  IDiag  3:
 E= 0.385271649044370     Delta-E=        0.000000000000 Rises=F Damp=F
 DIIS: error= 6.30D-09 at cycle  16 NSaved=  16.
 NSaved=16 IEnMin=14 EnMin= 0.385271649043887     IErMin=16 ErrMin= 6.30D-09
 ErrMax= 6.30D-09  0.00D+00 EMaxC= 1.00D-01 BMatC= 4.95D-16 BMatP= 4.63D-15
 IDIUse=1 WtCom= 1.00D+00 WtEn= 0.00D+00
 Large coefficients: NSaved= 16 BigCof=    0.00 CofMax=   10.00 Det=-2.86D-16
 Inversion failed.  Reducing to 15 matrices.
 Coeff-Com:  0.167D-07-0.908D-07 0.417D-06-0.108D-05 0.305D-05-0.187D-04
 Coeff-Com:  0.116D-03-0.368D-03 0.372D-03 0.133D-02-0.403D-02-0.249D-01
 Coeff-Com:  0.196D+00-0.699D+00 0.153D+01
 Coeff:      0.167D-07-0.908D-07 0.417D-06-0.108D-05 0.305D-05-0.187D-04
 Coeff:      0.116D-03-0.368D-03 0.372D-03 0.133D-02-0.403D-02-0.249D-01
 Coeff:      0.196D+00-0.699D+00 0.153D+01
 Gap=     0.260 Goal=   None    Shift=    0.000
 RMSDP=4.26D-09 MaxDP=8.70D-08 DE= 1.14D-13 OVMax= 7.45D-08

 Cycle  17  Pass 2  IDiag  1:
 SCF Done:  E(RPM7) =  0.385271649044     A.U. after   17 cycles
            NFock= 16  Conv=0.43D-08     -V/T= 1.0061
 KE=-6.266673728312D+01 PE=-2.717138670755D+02 EE= 1.543308337020D+02
 Leave Link  502 at Sat Dec 13 16:57:32 2025, MaxMem=   536870912 cpu:               0.0 elap:               0.7
 (Enter D:\G16W\l801.exe)
 Range of M.O.s used for correlation:     1    41
 NBasis=    41 NAE=    20 NBE=    20 NFC=     0 NFV=     0
 NROrb=     41 NOA=    20 NOB=    20 NVA=    21 NVB=    21
 Leave Link  801 at Sat Dec 13 16:57:33 2025, MaxMem=   536870912 cpu:               1.0 elap:               0.1
 (Enter D:\G16W\l1101.exe)
 Using compressed storage, NAtomX=    18.
 Will process     19 centers per pass.
 R6Disp: Adding PM7 dispersion energy 1st derivatives to the gradient.
 Leave Link 1101 at Sat Dec 13 16:57:33 2025, MaxMem=   536870912 cpu:               0.0 elap:               0.1
 (Enter D:\G16W\l1102.exe)
 Symmetrizing basis deriv contribution to polar:
 IMax=3 JMax=2 DiffMx= 0.00D+00
 Leave Link 1102 at Sat Dec 13 16:57:33 2025, MaxMem=   536870912 cpu:               0.0 elap:               0.1
 (Enter D:\G16W\l1110.exe)
 Forming Gx(P) for the SCF density, NAtomX=    18.
 Integral derivatives from FoFJK, PRISM(SPDF).
 Do as many integral derivatives as possible in FoFJK.
 G2DrvN: MDV=     536810604.
 G2DrvN: will do    19 centers at a time, making    1 passes.
 Calling FoFCou, ICntrl=  3107 FMM=F I1Cent=   0 AccDes= 0.00D+00.
 FoFJK:  IHMeth=43 ICntrl=    3107 DoSepK=F KAlg= 0 I1Cent=           0 FoldK=F
 IRaf=         0 NMat=       1 IRICut=       1 DoRegI=T DoRafI=F ISym2E= 0 IDoP0=3 IntGTp=3.
 FoFCou: FMM=F IPFlag=           0 FMFlag=      100000 FMFlg1=           0
         NFxFlg=           0 DoJE=F BraDBF=F KetDBF=F FulRan=T
         wScrn=  0.000000 ICntrl=      3107 IOpCl=  0 I1Cent=           0 NGrid=           0
         NMat0=    1 NMatS0=      1 NMatT0=    0 NMatD0=    1 NMtDS0=    0 NMtDT0=    0
 Symmetry not used in FoFCou.
 End of G2Drv F.D. properties file   721 does not exist.
 End of G2Drv F.D. properties file   722 does not exist.
 End of G2Drv F.D. properties file   788 does not exist.
 Leave Link 1110 at Sat Dec 13 16:57:33 2025, MaxMem=   536870912 cpu:               0.0 elap:               0.1
 (Enter D:\G16W\l1002.exe)
 Minotr:  Closed shell wavefunction.
          IDoAtm=111111111111111111
          Direct CPHF calculation.
          Differentiating once with respect to electric field.
                with respect to dipole field.
          Differentiating once with respect to nuclear coordinates.
          Electric field/nuclear overlap derivatives assumed to be zero.
          Requested convergence is 1.0D-08 RMS, and 1.0D-07 maximum.
          NewPWx=T KeepS1=F KeepF1=F KeepIn=T MapXYZ=F SortEE=F KeepMc=T.
 Keep J ints in memory in canonical form, NReq=1854628.
 FoFCou: FMM=F IPFlag=           0 FMFlag=           0 FMFlg1=           0
         NFxFlg=           0 DoJE=F BraDBF=F KetDBF=F FulRan=T
         wScrn=  0.000000 ICntrl=       600 IOpCl=  2 I1Cent=           0 NGrid=           0
         NMat0=    1 NMatS0=    107 NMatT0=    0 NMatD0=    1 NMtDS0=    0 NMtDT0=    0
 Symmetry not used in FoFCou.
 Two-electron integral symmetry not used.
          MDV=     536870912 using IRadAn=       1.
          Solving linear equations separately, MaxMat=       0.
          There are    57 degrees of freedom in the 1st order CPHF.  IDoFFX=5 NUNeed=    57.
 LinEq1:  Iter=  0 NonCon=    57 RMS=5.01D-01 Max=9.75D+00 NDo=    57
 AX will form    57 AO Fock derivatives at one time.
 LinEq1:  Iter=  1 NonCon=    57 RMS=6.80D-02 Max=5.51D-01 NDo=    57
 LinEq1:  Iter=  2 NonCon=    57 RMS=1.40D-02 Max=1.37D-01 NDo=    57
 LinEq1:  Iter=  3 NonCon=    57 RMS=2.97D-03 Max=2.11D-02 NDo=    57
 LinEq1:  Iter=  4 NonCon=    57 RMS=5.55D-04 Max=4.59D-03 NDo=    57
 LinEq1:  Iter=  5 NonCon=    57 RMS=1.15D-04 Max=9.57D-04 NDo=    57
 LinEq1:  Iter=  6 NonCon=    57 RMS=1.82D-05 Max=1.68D-04 NDo=    57
 LinEq1:  Iter=  7 NonCon=    53 RMS=3.74D-06 Max=2.66D-05 NDo=    57
 LinEq1:  Iter=  8 NonCon=    25 RMS=5.17D-07 Max=3.03D-06 NDo=    57
 LinEq1:  Iter=  9 NonCon=     3 RMS=8.31D-08 Max=5.72D-07 NDo=    57
 LinEq1:  Iter= 10 NonCon=     2 RMS=1.53D-08 Max=1.16D-07 NDo=    57
 LinEq1:  Iter= 11 NonCon=     0 RMS=3.26D-09 Max=2.53D-08 NDo=    57
 Linear equations converged to 1.000D-08 1.000D-07 after    11 iterations.
 FullF1:  Do perturbations      1 to       3.
 Isotropic polarizability for W=    0.000000       96.92 Bohr**3.
 End of Minotr F.D. properties file   721 does not exist.
 End of Minotr F.D. properties file   722 does not exist.
 End of Minotr F.D. properties file   788 does not exist.
 Leave Link 1002 at Sat Dec 13 16:57:33 2025, MaxMem=   536870912 cpu:               0.0 elap:               0.4
 (Enter D:\G16W\l601.exe)
 Copying SCF densities to generalized density rwf, IOpCl= 0 IROHF=0.

 **********************************************************************

            Population analysis using the SCF density.

 **********************************************************************

 Orbital symmetries:
       Occupied  (A) (A) (A) (A) (A) (A) (A) (A) (A) (A) (A) (A)
                 (A) (A) (A) (A) (A) (A) (A) (A)
       Virtual   (A) (A) (A) (A) (A) (A) (A) (A) (A) (A) (A) (A)
                 (A) (A) (A) (A) (A) (A) (A) (A) (A)
 The electronic state is 1-A.
 Alpha  occ. eigenvalues --   -1.39574  -1.11368  -0.98149  -0.95216  -0.79373
 Alpha  occ. eigenvalues --   -0.75835  -0.71397  -0.67873  -0.60608  -0.59890
 Alpha  occ. eigenvalues --   -0.58124  -0.48862  -0.48479  -0.48404  -0.45448
 Alpha  occ. eigenvalues --   -0.41998  -0.34438  -0.34203  -0.33357  -0.33353
 Alpha virt. eigenvalues --   -0.08205   0.08309   0.12590   0.12903   0.14677
 Alpha virt. eigenvalues --    0.15273   0.15291   0.19131   0.19196   0.19271
 Alpha virt. eigenvalues --    0.20222   0.20464   0.20942   0.22776   0.23180
 Alpha virt. eigenvalues --    0.23306   4.63922   4.63941   4.64059   4.65269
 Alpha virt. eigenvalues --    4.65270
          Condensed to atoms (all electrons):
               1          2          3          4          5          6
     1  C    4.417600   0.000000   0.000000   0.000000   0.000000   0.000000
     2  N    0.000000   5.315170   0.000000   0.000000   0.000000   0.000000
     3  C    0.000000   0.000000   4.411153   0.000000   0.000000   0.000000
     4  C    0.000000   0.000000   0.000000   4.337281   0.000000   0.000000
     5  H    0.000000   0.000000   0.000000   0.000000   0.837165   0.000000
     6  H    0.000000   0.000000   0.000000   0.000000   0.000000   0.801391
     7  H    0.000000   0.000000   0.000000   0.000000   0.000000   0.000000
     8  H    0.000000   0.000000   0.000000   0.000000   0.000000   0.000000
     9  H    0.000000   0.000000   0.000000   0.000000   0.000000   0.000000
    10  H    0.000000   0.000000   0.000000   0.000000   0.000000   0.000000
    11  H    0.000000   0.000000   0.000000   0.000000   0.000000   0.000000
    12  H    0.000000   0.000000   0.000000   0.000000   0.000000   0.000000
    13  H    0.000000   0.000000   0.000000   0.000000   0.000000   0.000000
    14  C    0.000000   0.000000   0.000000   0.000000   0.000000   0.000000
    15  I    0.000000   0.000000   0.000000   0.000000   0.000000   0.000000
    16  H    0.000000   0.000000   0.000000   0.000000   0.000000   0.000000
    17  H    0.000000   0.000000   0.000000   0.000000   0.000000   0.000000
    18  H    0.000000   0.000000   0.000000   0.000000   0.000000   0.000000
               7          8          9         10         11         12
     1  C    0.000000   0.000000   0.000000   0.000000   0.000000   0.000000
     2  N    0.000000   0.000000   0.000000   0.000000   0.000000   0.000000
     3  C    0.000000   0.000000   0.000000   0.000000   0.000000   0.000000
     4  C    0.000000   0.000000   0.000000   0.000000   0.000000   0.000000
     5  H    0.000000   0.000000   0.000000   0.000000   0.000000   0.000000
     6  H    0.000000   0.000000   0.000000   0.000000   0.000000   0.000000
     7  H    0.838944   0.000000   0.000000   0.000000   0.000000   0.000000
     8  H    0.000000   0.839149   0.000000   0.000000   0.000000   0.000000
     9  H    0.000000   0.000000   0.838225   0.000000   0.000000   0.000000
    10  H    0.000000   0.000000   0.000000   0.807065   0.000000   0.000000
    11  H    0.000000   0.000000   0.000000   0.000000   0.859424   0.000000
    12  H    0.000000   0.000000   0.000000   0.000000   0.000000   0.842162
    13  H    0.000000   0.000000   0.000000   0.000000   0.000000   0.000000
    14  C    0.000000   0.000000   0.000000   0.000000   0.000000   0.000000
    15  I    0.000000   0.000000   0.000000   0.000000   0.000000   0.000000
    16  H    0.000000   0.000000   0.000000   0.000000   0.000000   0.000000
    17  H    0.000000   0.000000   0.000000   0.000000   0.000000   0.000000
    18  H    0.000000   0.000000   0.000000   0.000000   0.000000   0.000000
              13         14         15         16         17         18
     1  C    0.000000   0.000000   0.000000   0.000000   0.000000   0.000000
     2  N    0.000000   0.000000   0.000000   0.000000   0.000000   0.000000
     3  C    0.000000   0.000000   0.000000   0.000000   0.000000   0.000000
     4  C    0.000000   0.000000   0.000000   0.000000   0.000000   0.000000
     5  H    0.000000   0.000000   0.000000   0.000000   0.000000   0.000000
     6  H    0.000000   0.000000   0.000000   0.000000   0.000000   0.000000
     7  H    0.000000   0.000000   0.000000   0.000000   0.000000   0.000000
     8  H    0.000000   0.000000   0.000000   0.000000   0.000000   0.000000
     9  H    0.000000   0.000000   0.000000   0.000000   0.000000   0.000000
    10  H    0.000000   0.000000   0.000000   0.000000   0.000000   0.000000
    11  H    0.000000   0.000000   0.000000   0.000000   0.000000   0.000000
    12  H    0.000000   0.000000   0.000000   0.000000   0.000000   0.000000
    13  H    0.842492   0.000000   0.000000   0.000000   0.000000   0.000000
    14  C    0.000000   4.253191   0.000000   0.000000   0.000000   0.000000
    15  I    0.000000   0.000000   7.357555   0.000000   0.000000   0.000000
    16  H    0.000000   0.000000   0.000000   0.817425   0.000000   0.000000
    17  H    0.000000   0.000000   0.000000   0.000000   0.791924   0.000000
    18  H    0.000000   0.000000   0.000000   0.000000   0.000000   0.792686
 Mulliken charges:
               1
     1  C   -0.417600
     2  N   -0.315170
     3  C   -0.411153
     4  C   -0.337281
     5  H    0.162835
     6  H    0.198609
     7  H    0.161056
     8  H    0.160851
     9  H    0.161775
    10  H    0.192935
    11  H    0.140576
    12  H    0.157838
    13  H    0.157508
    14  C   -0.253191
    15  I   -0.357555
    16  H    0.182575
    17  H    0.208076
    18  H    0.207314
 Sum of Mulliken charges =   0.00000
 Mulliken charges with hydrogens summed into heavy atoms:
               1
     1  C    0.104900
     2  N   -0.315170
     3  C    0.104408
     4  C    0.118642
    14  C    0.344775
    15  I   -0.357555
 APT charges:
               1
     1  C   -0.723498
     2  N   -0.491883
     3  C   -0.691829
     4  C   -0.469937
     5  H    0.195972
     6  H    0.240313
     7  H    0.200032
     8  H    0.198927
     9  H    0.196772
    10  H    0.234572
    11  H    0.151736
    12  H    0.196688
    13  H    0.197140
    14  C    0.860755
    15  I   -0.733444
    16  H    0.169942
    17  H    0.148499
    18  H    0.119239
 Sum of APT charges =   0.00000
 APT charges with hydrogens summed into heavy atoms:
               1
     1  C   -0.087181
     2  N   -0.491883
     3  C   -0.061558
     4  C    0.075628
    14  C    1.298435
    15  I   -0.733444
 Charge=              0.0000 electrons
 Dipole moment (field-independent basis, Debye):
    X=             -2.6476    Y=              0.0011    Z=              0.1461  Tot=              2.6516
 N-N= 1.804350423056D+02 E-N=-2.717138670637D+02  KE=-6.266673728312D+01
  Exact polarizability: 215.700   0.140  39.167   4.382   0.148  35.899
 Approx polarizability: 124.944   0.084  27.884   2.902   0.123  25.689
 Leave Link  601 at Sat Dec 13 16:57:34 2025, MaxMem=   536870912 cpu:               1.0 elap:               0.2
 (Enter D:\G16W\l701.exe)
 ... and contract with generalized density number  0.
 Compute integral second derivatives.
 R6Disp: Adding PM7 dispersion energy 2nd derivatives to the Hessian.
 Leave Link  701 at Sat Dec 13 16:57:34 2025, MaxMem=   536870912 cpu:               0.0 elap:               0.2
 (Enter D:\G16W\l702.exe)
 L702 exits ... SP integral derivatives will be done elsewhere.
 Leave Link  702 at Sat Dec 13 16:57:34 2025, MaxMem=   536870912 cpu:               0.0 elap:               0.1
 (Enter D:\G16W\l703.exe)
 Integral derivatives from FoFJK, PRISM(SPDF).
 Compute integral second derivatives, UseDBF=F ICtDFT=           0.
 Calling FoFJK, ICntrl=    100127 FMM=F ISym2X=0 I1Cent= 0 IOpClX= 0 NMat=1 NMatS=1 NMatT=0.
 FoFJK:  IHMeth=43 ICntrl=  100127 DoSepK=F KAlg= 0 I1Cent=           0 FoldK=F
 IRaf=         0 NMat=       1 IRICut=       1 DoRegI=T DoRafI=F ISym2E= 0 IDoP0=3 IntGTp=3.
 FoFCou: FMM=F IPFlag=           0 FMFlag=      100000 FMFlg1=         800
         NFxFlg=           0 DoJE=F BraDBF=F KetDBF=F FulRan=T
         wScrn=  0.000000 ICntrl=    100127 IOpCl=  0 I1Cent=           0 NGrid=           0
         NMat0=    1 NMatS0=      1 NMatT0=    0 NMatD0=    1 NMtDS0=    0 NMtDT0=    0
 Symmetry not used in FoFCou.
 Leave Link  703 at Sat Dec 13 16:57:34 2025, MaxMem=   536870912 cpu:               0.0 elap:               0.1
 (Enter D:\G16W\l716.exe)
 Dipole        =-1.04163711D+00 4.21407391D-04 5.74870391D-02
 Polarizability= 2.15700247D+02 1.39516277D-01 3.91670891D+01
                 4.38171611D+00 1.48046783D-01 3.58992163D+01
 HyperPolar    =-2.69723971D+03 8.07795386D+00 7.73518610D+01
                 4.55093185D+00-3.76251924D+01 1.10502601D+01
                 7.36552119D+00 2.15000667D+01-3.51544165D-01
                 1.71840529D+01
 ***** Axes restored to original set *****
 -------------------------------------------------------------------
 Center     Atomic                   Forces (Hartrees/Bohr)
 Number     Number              X              Y              Z
 -------------------------------------------------------------------
      1        6          -0.043816441   -0.015506467   -0.093927879
      2        7           0.000401020   -0.000490570   -0.034653918
      3        6           0.033893123   -0.028713114   -0.090621163
      4        6           0.004001960    0.023973212   -0.036786812
      5        1          -0.002225393    0.001941995   -0.004365978
      6        1          -0.137690884   -0.006624441   -0.105427794
      7        1          -0.000326189   -0.003710720   -0.004365257
      8        1          -0.000728512   -0.003560405   -0.003998705
      9        1           0.002564352    0.001335624   -0.004452864
     10        1           0.115979048   -0.067824640   -0.116002084
     11        1           0.008970517    0.050084985   -0.021265710
     12        1           0.003267577    0.000365081   -0.003539166
     13        1          -0.003119340    0.001186250   -0.003582980
     14        6           0.006380906    0.047709448    0.237679044
     15       53           0.000200290    0.000911068   -0.016953295
     16        1          -0.004199037    0.042810718    0.022514424
     17        1           0.002919727    0.004647815    0.144078659
     18        1           0.013527276   -0.048535839    0.135671478
 -------------------------------------------------------------------
 Cartesian Forces:  Max     0.237679044 RMS     0.059680263
 FormGI is forming the generalized inverse of G from B-inverse, IUseBI=4.
 Leave Link  716 at Sat Dec 13 16:57:34 2025, MaxMem=   536870912 cpu:               0.0 elap:               0.2
 (Enter D:\G16W\l103.exe)

 GradGradGradGradGradGradGradGradGradGradGradGradGradGradGradGradGradGrad
 Berny optimization.
 Red2BG is reusing G-inverse.
 Internal  Forces:  Max     0.280013813 RMS     0.059885837
 Search for a saddle point.
 Step number   1 out of a maximum of  100
 All quantities printed in internal units (Hartrees-Bohrs-Radians)
 Swapping is turned off.
 Second derivative matrix not updated -- analytic derivatives used.
 ITU=  0
     Eigenvalues ---   -0.08602  -0.06962  -0.02032  -0.01020  -0.00325
     Eigenvalues ---    0.00198   0.00569   0.01046   0.01876   0.02353
     Eigenvalues ---    0.03081   0.03382   0.03837   0.04290   0.04769
     Eigenvalues ---    0.04935   0.05019   0.05282   0.06735   0.07689
     Eigenvalues ---    0.08814   0.08910   0.09115   0.10805   0.11426
     Eigenvalues ---    0.11584   0.12969   0.15380   0.16059   0.17077
     Eigenvalues ---    0.19025   0.23248   0.23347   0.23938   0.24894
     Eigenvalues ---    0.25867   0.25976   0.26036   0.26646   0.27742
     Eigenvalues ---    0.28237   0.30330   0.39418   0.41078   0.48036
     Eigenvalues ---    0.57503   0.65122   1.65740
 Eigenvectors required to have negative eigenvalues:
                          D16       D19       A9        A8        A24
   1                    0.36980   0.36602  -0.26824   0.25555   0.25433
                          D34       A30       D4        D18       D17
   1                    0.20513   0.17503   0.16728   0.15209   0.15042
 Eigenvalue     2 is  -6.96D-02 should be greater than     0.000000 Eigenvector:
                          A26       D33       A25       D31       D25
   1                    0.44386  -0.32126  -0.31347   0.29897  -0.24823
                          A24       R15       A30       D29       D35
   1                   -0.24571   0.23892  -0.17809   0.16811   0.15720
 Eigenvalue     3 is  -2.03D-02 should be greater than     0.000000 Eigenvector:
                          D28       D22       D27       D24       D23
   1                   -0.37510   0.37470  -0.37022   0.31538   0.28253
                          D29       A23       D12       D15       R21
   1                   -0.25448  -0.24786  -0.20390  -0.18354  -0.13394
 Eigenvalue     4 is  -1.02D-02 should be greater than     0.000000 Eigenvector:
                          D34       D35       D26       D19       D16
   1                    0.47411   0.36523  -0.32321  -0.27087  -0.25920
                          D21       D20       D18       D17       D27
   1                   -0.19600  -0.19520  -0.18433  -0.18353   0.17024
 Eigenvalue     5 is  -3.25D-03 should be greater than     0.000000 Eigenvector:
                          D7        D25       D8        D9        D32
   1                   -0.33503   0.33141  -0.32141  -0.31186  -0.24596
                          A32       D19       D35       R19       D16
   1                   -0.20193   0.19197   0.18402  -0.16733   0.16583
 RFO step:  Lambda0=1.032847027D-06 Lambda=-2.87802677D-01.
 Linear search not attempted -- option 19 set.
 Maximum step size (   0.300) exceeded in Quadratic search.
    -- Step size scaled by   0.364
 Iteration  1 RMS(Cart)=  0.06079178 RMS(Int)=  0.00521088
 Iteration  2 RMS(Cart)=  0.00508513 RMS(Int)=  0.00265283
 Iteration  3 RMS(Cart)=  0.00004449 RMS(Int)=  0.00265254
 Iteration  4 RMS(Cart)=  0.00000033 RMS(Int)=  0.00265254
 ITry= 1 IFail=0 DXMaxC= 2.72D-01 DCOld= 1.00D+10 DXMaxT= 3.00D-01 DXLimC= 3.00D+00 Rises=F
 Variable       Old X    -DE/DX   Delta X   Delta X   Delta X     New X
                                 (Linear)    (Quad)   (Total)
    R1        2.76362   0.10106   0.00000   0.00230  -0.00059   2.76302
    R2        2.07067   0.00439   0.00000   0.00048   0.00048   2.07114
    R3        2.07141   0.15944   0.00000   0.02488   0.02490   2.09631
    R4        2.07067   0.00468   0.00000   0.00254   0.00254   2.07321
    R5        2.76362   0.08736   0.00000   0.00301  -0.00043   2.76319
    R6        2.76362   0.06083   0.00000  -0.00022  -0.00022   2.76340
    R7        2.07066   0.00449   0.00000   0.00320   0.00320   2.07386
    R8        2.07066   0.00440   0.00000   0.00315   0.00315   2.07381
    R9        2.07141   0.14244   0.00000   0.02904   0.02846   2.09987
   R10        2.07141  -0.01226   0.00000  -0.00673  -0.00673   2.06468
   R11        2.07066   0.00432   0.00000   0.00204   0.00204   2.07271
   R12        2.07066   0.00436   0.00000   0.00262   0.00262   2.07329
   R13        1.60670   0.28001   0.00000   0.08394   0.08621   1.69291
   R14        1.58127   0.27626   0.00000   0.09031   0.09181   1.67308
   R15        5.00777  -0.05488   0.00000  -0.12373  -0.12717   4.88061
   R16        1.89915   0.03751   0.00000   0.01577   0.01747   1.91662
   R17        1.88935   0.07314   0.00000   0.04958   0.05308   1.94243
   R18        1.88935   0.06221   0.00000   0.07411   0.07736   1.96671
   R19        5.17609  -0.02162   0.00000  -0.01602  -0.02103   5.15506
   R20        5.17250   0.03125   0.00000  -0.00192   0.00125   5.17375
   R21        5.17250   0.04474   0.00000   0.01873   0.02299   5.19549
    A1        1.92938  -0.02343   0.00000   0.00463   0.00430   1.93368
    A2        1.95917   0.07018   0.00000   0.00208   0.00167   1.96084
    A3        1.92938  -0.01541   0.00000  -0.00423  -0.00374   1.92564
    A4        1.89086  -0.00055   0.00000   0.00532   0.00589   1.89675
    A5        1.86090   0.00413   0.00000  -0.00206  -0.00207   1.85883
    A6        1.89086  -0.03829   0.00000  -0.00597  -0.00633   1.88453
    A7        1.92776  -0.03288   0.00000  -0.01494  -0.01753   1.91023
    A8        1.92776   0.03517   0.00000  -0.02558  -0.02402   1.90373
    A9        1.92776   0.04050   0.00000   0.03600   0.03646   1.96422
   A10        1.92938  -0.02236   0.00000  -0.02062  -0.02000   1.90938
   A11        1.92938  -0.02189   0.00000  -0.00484  -0.00435   1.92503
   A12        1.95917   0.08131   0.00000   0.04603   0.04383   2.00300
   A13        1.86090   0.00492   0.00000   0.00434   0.00404   1.86493
   A14        1.89086  -0.05695   0.00000  -0.00700  -0.00618   1.88468
   A15        1.89086   0.01102   0.00000  -0.02006  -0.01946   1.87140
   A16        1.95917   0.08346   0.00000   0.00829   0.00828   1.96745
   A17        1.92938  -0.01842   0.00000  -0.00246  -0.00247   1.92691
   A18        1.92938  -0.01732   0.00000  -0.00642  -0.00642   1.92296
   A19        1.89086  -0.02694   0.00000   0.00460   0.00458   1.89544
   A20        1.89086  -0.02492   0.00000  -0.00589  -0.00588   1.88498
   A21        1.86090  -0.00044   0.00000   0.00169   0.00168   1.86258
   A22        2.51067  -0.03047   0.00000   0.00854   0.01489   2.52557
   A23        2.60736  -0.00157   0.00000  -0.01789  -0.01347   2.59389
   A24        2.08021   0.02258   0.00000   0.06979   0.06376   2.14397
   A25        2.08021   0.00586   0.00000   0.10661   0.10049   2.18070
   A26        2.07121   0.00170   0.00000  -0.11864  -0.12247   1.94874
   A27        0.64246   0.02323   0.00000   0.02626   0.02610   0.66857
   A28        0.64246   0.01719   0.00000   0.03643   0.03585   0.67832
   A29        0.63921   0.01918   0.00000  -0.00269  -0.00483   0.63439
   A30        1.96901   0.00738   0.00000   0.06002   0.06542   2.03443
   A31        1.89135   0.04349   0.00000   0.07122   0.07322   1.96457
   A32        2.76240   0.04425   0.00000   0.02866   0.03394   2.79634
   A33        3.25052  -0.04574   0.00000  -0.01583  -0.01438   3.23614
   A34        3.07122  -0.00293   0.00000  -0.01476  -0.01786   3.05336
    D1       -3.10087   0.02384   0.00000   0.00364   0.00325  -3.09762
    D2        1.04452  -0.02895   0.00000  -0.01437  -0.01484   1.02968
    D3        1.06890  -0.00700   0.00000  -0.00784  -0.00853   1.06037
    D4       -1.06890  -0.05979   0.00000  -0.02585  -0.02662  -1.09552
    D5       -1.04452   0.00480   0.00000   0.00134   0.00103  -1.04349
    D6        3.10086  -0.04800   0.00000  -0.01667  -0.01706   3.08381
    D7       -0.70880  -0.00814   0.00000   0.01440   0.01348  -0.69532
    D8       -2.84422  -0.02392   0.00000   0.00352   0.00280  -2.84143
    D9        1.42661  -0.00845   0.00000   0.00628   0.00549   1.43210
   D10        1.04452   0.00491   0.00000   0.00116   0.00080   1.04531
   D11        3.10087  -0.01652   0.00000  -0.00931  -0.00907   3.09179
   D12       -1.06890   0.03782   0.00000  -0.00687  -0.00686  -1.07577
   D13       -3.10087   0.05458   0.00000  -0.01690  -0.01722  -3.11809
   D14       -1.04452   0.03315   0.00000  -0.02737  -0.02709  -1.07161
   D15        1.06890   0.08749   0.00000  -0.02493  -0.02488   1.04402
   D16        1.06890   0.00693   0.00000  -0.00444  -0.00570   1.06320
   D17       -3.10086   0.01663   0.00000   0.00537   0.00412  -3.09674
   D18       -1.04452  -0.00612   0.00000   0.00194   0.00071  -1.04381
   D19       -1.06890  -0.00289   0.00000   0.00738   0.00862  -1.06028
   D20        1.04452   0.00682   0.00000   0.01720   0.01845   1.06297
   D21        3.10087  -0.01593   0.00000   0.01377   0.01503   3.11590
   D22        0.24496  -0.00320   0.00000   0.01526   0.01557   0.26053
   D23       -1.89046   0.01157   0.00000   0.01615   0.01649  -1.87397
   D24        2.38038   0.02982   0.00000   0.02522   0.02488   2.40526
   D25        0.89645   0.01233   0.00000   0.08242   0.07912   0.97557
   D26        2.53640  -0.00513   0.00000   0.06047   0.06283   2.59923
   D27       -0.74734  -0.02860   0.00000  -0.09997  -0.10047  -0.84782
   D28        0.32517  -0.02264   0.00000  -0.05187  -0.05424   0.27093
   D29       -0.14313  -0.00868   0.00000  -0.09918  -0.09434  -0.23747
   D30       -1.76193   0.00915   0.00000   0.07097   0.07402  -1.68791
   D31        1.72157  -0.08848   0.00000  -0.13485  -0.12477   1.59679
   D32        1.34891   0.00273   0.00000  -0.05571  -0.06098   1.28793
   D33       -2.13459   0.10370   0.00000   0.14278   0.13422  -2.00037
   D34       -1.20139   0.01319   0.00000  -0.05239  -0.05261  -1.25401
   D35       -2.31411   0.00008   0.00000  -0.07305  -0.07316  -2.38728
         Item               Value     Threshold  Converged?
 Maximum Force            0.280014     0.000450     NO 
 RMS     Force            0.059886     0.000300     NO 
 Maximum Displacement     0.272156     0.001800     NO 
 RMS     Displacement     0.063437     0.001200     NO 
 Predicted change in Energy=-1.117160D-01
 Lowest energy point so far.  Saving SCF results.
 GradGradGradGradGradGradGradGradGradGradGradGradGradGradGradGradGradGrad

 Leave Link  103 at Sat Dec 13 16:57:35 2025, MaxMem=   536870912 cpu:               1.0 elap:               0.2
 (Enter D:\G16W\l202.exe)
                          Input orientation:                          
 ---------------------------------------------------------------------
 Center     Atomic      Atomic             Coordinates (Angstroms)
 Number     Number       Type             X           Y           Z
 ---------------------------------------------------------------------
      1          6           0       -1.256578   -0.482661    0.505097
      2          7           0        0.014338   -0.000655   -0.033665
      3          6           0        1.109740   -0.798918    0.514930
      4          6           0        0.152304    1.423381    0.268801
      5          1           0       -2.097521    0.072115    0.073523
      6          1           0       -1.305271   -0.398583    1.610153
      7          1           0       -1.408570   -1.536000    0.238658
      8          1           0        0.967927   -1.851390    0.238216
      9          1           0        2.066405   -0.481891    0.080644
     10          1           0        1.216308   -0.746003    1.619747
     11          1           0        0.155504    1.628592    1.341934
     12          1           0        1.078591    1.818605   -0.165737
     13          1           0       -0.673606    1.987726   -0.181858
     14          6           0        0.030708    0.071229    2.381877
     15         53           0       -0.008601   -0.086438    4.959467
     16          1           0        0.070053    1.078476    2.494019
     17          1           0        0.867662   -0.525108    2.403015
     18          1           0       -0.843257   -0.493764    2.371749
 ---------------------------------------------------------------------
                    Distance matrix (angstroms):
                    1          2          3          4          5
     1  C    0.000000
     2  N    1.462129   0.000000
     3  C    2.387378   1.462219   0.000000
     4  C    2.381970   1.462327   2.432257   0.000000
     5  H    1.096002   2.115830   3.352620   2.631685   0.000000
     6  H    1.109319   2.145192   2.681801   2.691339   1.791772
     7  H    1.097093   2.110950   2.638465   3.345919   1.757258
     8  H    2.625464   2.099636   1.097442   3.374952   3.622702
     9  H    3.349981   2.110836   1.097415   2.707258   4.200625
    10  H    2.725244   2.175785   1.111205   2.768282   3.747211
    11  H    2.674259   2.136971   2.736294   1.092583   3.017881
    12  H    3.346470   2.111821   2.704757   1.096829   3.632515
    13  H    2.629558   2.109239   3.381009   1.097135   2.400483
    14  C    2.342265   2.416666   2.325286   2.511611   3.139723
    15  I    4.642828   4.993921   4.638127   4.930294   5.316124
    16  H    2.855330   2.748966   2.919306   2.253291   3.401462
    17  H    2.848911   2.634506   1.923132   2.977115   3.817790
    18  H    1.911896   2.600892   2.712027   3.014793   2.678664
                    6          7          8          9         10
     6  H    0.000000
     7  H    1.784764   0.000000
     8  H    3.026596   2.397334   0.000000
     9  H    3.703314   3.634771   1.762671   0.000000
    10  H    2.545418   3.069444   1.786673   1.777993   0.000000
    11  H    2.513015   3.698403   3.740120   3.113925   2.615566
    12  H    3.708438   4.195579   3.693818   2.515704   3.127960
    13  H    3.050373   3.624038   4.196416   3.698050   3.780321
    14  C    1.612800   3.041068   3.028221   3.121807   1.629220
    15  I    3.605093   5.132950   5.134089   5.316479   3.617895
    16  H    2.203280   3.756124   3.805120   3.499221   2.325291
    17  H    2.316523   3.299633   2.540755   2.613860   0.885358
    18  H    0.895849   2.440474   3.110546   3.703436   2.207021
                   11         12         13         14         15
    11  H    0.000000
    12  H    1.777995   0.000000
    13  H    1.771537   1.760413   0.000000
    14  C    1.876815   3.262165   3.277462   0.000000
    15  I    4.006845   5.574845   5.583692   2.582707   0.000000
    16  H    1.279542   2.939259   2.922342   1.014234   2.727938
    17  H    2.504293   3.483672   3.920639   1.027889   2.737830
    18  H    2.561725   3.934385   3.564755   1.040738   2.749336
                   16         17         18
    16  H    0.000000
    17  H    1.793305   0.000000
    18  H    1.822368   1.711492   0.000000
 Stoichiometry    C4H12IN
 Framework group  C1[X(C4H12IN)]
 Deg. of freedom    48
 Full point group                 C1      NOp   1
 RotChk:  IX=2 Diff= 1.09D+00
 Largest Abelian subgroup         C1      NOp   1
 Largest concise Abelian subgroup C1      NOp   1
                         Standard orientation:                         
 ---------------------------------------------------------------------
 Center     Atomic      Atomic             Coordinates (Angstroms)
 Number     Number       Type             X           Y           Z
 ---------------------------------------------------------------------
      1          6           0       -2.562149   -0.225101   -1.362740
      2          7           0       -3.123799    0.077704   -0.047187
      3          6           0       -2.549496    1.326469    0.451659
      4          6           0       -2.876269   -1.050695    0.849387
      5          1           0       -3.011243   -1.134781   -1.777489
      6          1           0       -1.460911   -0.355046   -1.331470
      7          1           0       -2.787727    0.583678   -2.068859
      8          1           0       -2.785414    2.140363   -0.245692
      9          1           0       -2.999248    1.593670    1.416358
     10          1           0       -1.447916    1.307087    0.596300
     11          1           0       -1.811741   -1.253071    0.989244
     12          1           0       -3.329130   -0.865591    1.831062
     13          1           0       -3.344856   -1.959657    0.451995
     14          6           0       -0.712823   -0.045712    0.063449
     15         53           0        1.869033   -0.011699    0.006543
     16          1           0       -0.639237   -0.872480    0.646295
     17          1           0       -0.672268    0.908895    0.442445
     18          1           0       -0.698048   -0.046718   -0.977183
 ---------------------------------------------------------------------
 Rotational constants (GHZ):           4.8167829           0.5385561           0.5372854
 Leave Link  202 at Sat Dec 13 16:57:35 2025, MaxMem=   536870912 cpu:               0.0 elap:               0.1
 (Enter D:\G16W\l301.exe)
 Standard basis: VSTO-6G (5D, 7F)
 Ernie: Thresh=  0.10000D-02 Tol=  0.10000D-05 Strict=F.
 EHB=         0.000000000 Number of Hydrogen Bonds=     0
  NNHCO=     0 NNPyr=     0 NCTC=     0               EPep=         0.000000000
    EC=       135.937037769  ECS=         3.002350412   EG=         0.554697589
   EHC=         0.000567355  EAt=       -36.754028298  AtH=         2.306420954
 EPDDG=         0.000000000  ECC=       139.494653127 EAtT=        39.060449251
  EHyb=         0.000000000
 There are    42 symmetry adapted cartesian basis functions of A   symmetry.
 There are    41 symmetry adapted basis functions of A   symmetry.
    41 basis functions,   252 primitive gaussians,    42 cartesian basis functions
    20 alpha electrons       20 beta electrons
       nuclear repulsion energy       178.5551023779 Hartrees.
 IExCor=    0 DFT=F Ex=HF Corr=None ExCW=0 ScaHFX=  1.000000
 ScaDFX=  1.000000  1.000000  1.000000  1.000000 ScalE2=  1.000000  1.000000
 IRadAn=      5 IRanWt=     -1 IRanGd=            0 ICorTp=0 IEmpDi=251
 Integral buffers will be    131072 words long.
 Regular integral format.
 Two-electron integral symmetry is turned off.
 R6Disp:  PM7 Dispersion energy=       -0.0026899944 Hartrees.
 Nuclear repulsion after empirical dispersion term =      178.5524123835 Hartrees.
 Leave Link  301 at Sat Dec 13 16:57:35 2025, MaxMem=   536870912 cpu:               0.0 elap:               0.1
 (Enter D:\G16W\l302.exe)
 Do NDO integrals.
 NPDir=0 NMtPBC=     1 NCelOv=     1 NCel=       1 NClECP=     1 NCelD=      1
         NCelK=      1 NCelE2=     1 NClLst=     1 CellRange=     0.0.
 One-electron integrals computed using PRISM.
 NBasis=    41 RedAO= F EigKep=  0.00D+00  NBF=    41
 NBsUse=    41 1.00D-04 EigRej=  0.00D+00 NBFU=    41
 Leave Link  302 at Sat Dec 13 16:57:35 2025, MaxMem=   536870912 cpu:               0.0 elap:               0.2
 (Enter D:\G16W\l303.exe)
 DipDrv:  MaxL=1.
 Leave Link  303 at Sat Dec 13 16:57:35 2025, MaxMem=   536870912 cpu:               0.0 elap:               0.1
 (Enter D:\G16W\l401.exe)
 Initial guess from the checkpoint file:  ".\Gau-27320.chk"
 B after Tr=     0.000000    0.000000    0.000000
         Rot=    0.923368   -0.383909    0.001194    0.001796 Ang= -45.15 deg.
 Guess basis will be translated and rotated to current coordinates.
 JPrj=0 DoOrth=T DoCkMO=T.
 Leave Link  401 at Sat Dec 13 16:57:36 2025, MaxMem=   536870912 cpu:               1.0 elap:               0.2
 (Enter D:\G16W\l502.exe)
 Keep J ints in memory in canonical form, NReq=1852917.
 FoFCou: FMM=F IPFlag=           0 FMFlag=           0 FMFlg1=           0
         NFxFlg=           0 DoJE=F BraDBF=F KetDBF=F FulRan=T
         wScrn=  0.000000 ICntrl=       600 IOpCl=  2 I1Cent=           0 NGrid=           0
         NMat0=    1 NMatS0=    107 NMatT0=    0 NMatD0=    1 NMtDS0=    0 NMtDT0=    0
 Symmetry not used in FoFCou.
 Two-electron integral symmetry not used.
 Closed shell SCF:
 Using DIIS extrapolation, IDIIS=  1040.
 Overlap will be assumed to be unity.
 NGot=   536870912 LenX=   536801538 LenY=   536799333
 Requested convergence on RMS density matrix=1.00D-08 within 128 cycles.
 Requested convergence on MAX density matrix=1.00D-06.
 Requested convergence on             energy=1.00D-06.
 No special actions if energy rises.

 Cycle   1  Pass 1  IDiag  1:
 E= 0.287113358435562    
 DIIS: error= 8.44D-03 at cycle   1 NSaved=   1.
 NSaved= 1 IEnMin= 1 EnMin= 0.287113358435562     IErMin= 1 ErrMin= 8.44D-03
 ErrMax= 8.44D-03  0.00D+00 EMaxC= 1.00D-01 BMatC= 2.75D-03 BMatP= 2.75D-03
 IDIUse=3 WtCom= 9.16D-01 WtEn= 8.44D-02
 Coeff-Com:  0.100D+01
 Coeff-En:   0.100D+01
 Coeff:      0.100D+01
 GapD=    2.000 DampG=2.000 DampE=1.000 DampFc=2.0000 IDamp=-1.
 RMSDP=2.66D-03 MaxDP=2.56D-02              OVMax= 0.00D+00

 Cycle   2  Pass 1  IDiag  3:
 E= 0.277421170107175     Delta-E=       -0.009692188328 Rises=F Damp=F
 DIIS: error= 3.32D-03 at cycle   2 NSaved=   2.
 NSaved= 2 IEnMin= 2 EnMin= 0.277421170107175     IErMin= 2 ErrMin= 3.32D-03
 ErrMax= 3.32D-03  0.00D+00 EMaxC= 1.00D-01 BMatC= 3.72D-04 BMatP= 2.75D-03
 IDIUse=3 WtCom= 9.67D-01 WtEn= 3.32D-02
 Coeff-Com: -0.411D+00 0.141D+01
 Coeff-En:   0.000D+00 0.100D+01
 Coeff:     -0.398D+00 0.140D+01
 Gap=     0.264 Goal=   None    Shift=    0.000
 RMSDP=1.69D-03 MaxDP=1.79D-02 DE=-9.69D-03 OVMax= 2.23D-02

 Cycle   3  Pass 1  IDiag  3:
 E= 0.275263312856993     Delta-E=       -0.002157857250 Rises=F Damp=F
 DIIS: error= 7.18D-04 at cycle   3 NSaved=   3.
 NSaved= 3 IEnMin= 3 EnMin= 0.275263312856993     IErMin= 3 ErrMin= 7.18D-04
 ErrMax= 7.18D-04  0.00D+00 EMaxC= 1.00D-01 BMatC= 2.41D-05 BMatP= 3.72D-04
 IDIUse=3 WtCom= 9.93D-01 WtEn= 7.18D-03
 Coeff-Com:  0.582D-01-0.393D+00 0.133D+01
 Coeff-En:   0.000D+00 0.000D+00 0.100D+01
 Coeff:      0.578D-01-0.390D+00 0.133D+01
 Gap=     0.265 Goal=   None    Shift=    0.000
 RMSDP=5.96D-04 MaxDP=6.86D-03 DE=-2.16D-03 OVMax= 8.48D-03

 Cycle   4  Pass 1  IDiag  3:
 E= 0.275061590532658     Delta-E=       -0.000201722324 Rises=F Damp=F
 DIIS: error= 1.93D-04 at cycle   4 NSaved=   4.
 NSaved= 4 IEnMin= 4 EnMin= 0.275061590532658     IErMin= 4 ErrMin= 1.93D-04
 ErrMax= 1.93D-04  0.00D+00 EMaxC= 1.00D-01 BMatC= 2.24D-06 BMatP= 2.41D-05
 IDIUse=3 WtCom= 9.98D-01 WtEn= 1.93D-03
 Coeff-Com: -0.267D-02 0.773D-01-0.537D+00 0.146D+01
 Coeff-En:   0.000D+00 0.000D+00 0.000D+00 0.100D+01
 Coeff:     -0.266D-02 0.771D-01-0.536D+00 0.146D+01
 Gap=     0.265 Goal=   None    Shift=    0.000
 RMSDP=2.22D-04 MaxDP=2.54D-03 DE=-2.02D-04 OVMax= 3.12D-03

 Cycle   5  Pass 1  IDiag  3:
 E= 0.275039180594263     Delta-E=       -0.000022409938 Rises=F Damp=F
 DIIS: error= 5.87D-05 at cycle   5 NSaved=   5.
 NSaved= 5 IEnMin= 5 EnMin= 0.275039180594263     IErMin= 5 ErrMin= 5.87D-05
 ErrMax= 5.87D-05  0.00D+00 EMaxC= 1.00D-01 BMatC= 2.47D-07 BMatP= 2.24D-06
 IDIUse=1 WtCom= 1.00D+00 WtEn= 0.00D+00
 Coeff-Com: -0.857D-02 0.406D-01-0.525D-01-0.318D+00 0.134D+01
 Coeff:     -0.857D-02 0.406D-01-0.525D-01-0.318D+00 0.134D+01
 Gap=     0.265 Goal=   None    Shift=    0.000
 RMSDP=7.72D-05 MaxDP=8.38D-04 DE=-2.24D-05 OVMax= 1.09D-03

 Cycle   6  Pass 1  IDiag  3:
 E= 0.275036788754647     Delta-E=       -0.000002391840 Rises=F Damp=F
 DIIS: error= 2.21D-05 at cycle   6 NSaved=   6.
 NSaved= 6 IEnMin= 6 EnMin= 0.275036788754647     IErMin= 6 ErrMin= 2.21D-05
 ErrMax= 2.21D-05  0.00D+00 EMaxC= 1.00D-01 BMatC= 2.31D-08 BMatP= 2.47D-07
 IDIUse=1 WtCom= 1.00D+00 WtEn= 0.00D+00
 Coeff-Com:  0.246D-02-0.172D-01 0.598D-01-0.278D-01-0.396D+00 0.138D+01
 Coeff:      0.246D-02-0.172D-01 0.598D-01-0.278D-01-0.396D+00 0.138D+01
 Gap=     0.265 Goal=   None    Shift=    0.000
 RMSDP=2.62D-05 MaxDP=2.78D-04 DE=-2.39D-06 OVMax= 4.55D-04

 Cycle   7  Pass 1  IDiag  3:
 E= 0.275036500258267     Delta-E=       -0.000000288496 Rises=F Damp=F
 DIIS: error= 1.13D-05 at cycle   7 NSaved=   7.
 NSaved= 7 IEnMin= 7 EnMin= 0.275036500258267     IErMin= 7 ErrMin= 1.13D-05
 ErrMax= 1.13D-05  0.00D+00 EMaxC= 1.00D-01 BMatC= 4.04D-09 BMatP= 2.31D-08
 IDIUse=1 WtCom= 1.00D+00 WtEn= 0.00D+00
 Coeff-Com: -0.118D-02 0.901D-02-0.362D-01 0.465D-01 0.135D+00-0.902D+00
 Coeff-Com:  0.175D+01
 Coeff:     -0.118D-02 0.901D-02-0.362D-01 0.465D-01 0.135D+00-0.902D+00
 Coeff:      0.175D+01
 Gap=     0.265 Goal=   None    Shift=    0.000
 RMSDP=1.48D-05 MaxDP=1.78D-04 DE=-2.88D-07 OVMax= 2.80D-04

 Cycle   8  Pass 1  IDiag  3:
 E= 0.275036432045368     Delta-E=       -0.000000068213 Rises=F Damp=F
 DIIS: error= 4.75D-06 at cycle   8 NSaved=   8.
 NSaved= 8 IEnMin= 8 EnMin= 0.275036432045368     IErMin= 8 ErrMin= 4.75D-06
 ErrMax= 4.75D-06  0.00D+00 EMaxC= 1.00D-01 BMatC= 5.89D-10 BMatP= 4.04D-09
 IDIUse=1 WtCom= 1.00D+00 WtEn= 0.00D+00
 Coeff-Com:  0.944D-04-0.128D-02 0.721D-02-0.164D-01-0.843D-02 0.239D+00
 Coeff-Com: -0.892D+00 0.167D+01
 Coeff:      0.944D-04-0.128D-02 0.721D-02-0.164D-01-0.843D-02 0.239D+00
 Coeff:     -0.892D+00 0.167D+01
 Gap=     0.265 Goal=   None    Shift=    0.000
 RMSDP=6.63D-06 MaxDP=8.87D-05 DE=-6.82D-08 OVMax= 1.31D-04

 Cycle   9  Pass 1  IDiag  3:
 E= 0.275036421938296     Delta-E=       -0.000000010107 Rises=F Damp=F
 DIIS: error= 1.45D-06 at cycle   9 NSaved=   9.
 NSaved= 9 IEnMin= 9 EnMin= 0.275036421938296     IErMin= 9 ErrMin= 1.45D-06
 ErrMax= 1.45D-06  0.00D+00 EMaxC= 1.00D-01 BMatC= 5.20D-11 BMatP= 5.89D-10
 IDIUse=1 WtCom= 1.00D+00 WtEn= 0.00D+00
 Coeff-Com:  0.154D-04 0.178D-04-0.483D-03 0.263D-02-0.597D-02-0.649D-02
 Coeff-Com:  0.136D+00-0.541D+00 0.142D+01
 Coeff:      0.154D-04 0.178D-04-0.483D-03 0.263D-02-0.597D-02-0.649D-02
 Coeff:      0.136D+00-0.541D+00 0.142D+01
 Gap=     0.265 Goal=   None    Shift=    0.000
 RMSDP=1.48D-06 MaxDP=2.35D-05 DE=-1.01D-08 OVMax= 3.03D-05

 Cycle  10  Pass 1  IDiag  3:
 E= 0.275036421304492     Delta-E=       -0.000000000634 Rises=F Damp=F
 DIIS: error= 5.38D-07 at cycle  10 NSaved=  10.
 NSaved=10 IEnMin=10 EnMin= 0.275036421304492     IErMin=10 ErrMin= 5.38D-07
 ErrMax= 5.38D-07  0.00D+00 EMaxC= 1.00D-01 BMatC= 5.43D-12 BMatP= 5.20D-11
 IDIUse=1 WtCom= 1.00D+00 WtEn= 0.00D+00
 Coeff-Com: -0.264D-04 0.171D-03-0.641D-03 0.622D-03 0.325D-02-0.200D-01
[...]
     6   1     0.47   0.15  -0.07    -0.02  -0.03   0.02    -0.01  -0.01   0.00
     7   1     0.08  -0.07   0.17    -0.21   0.09  -0.35    -0.03   0.01  -0.04
     8   1     0.06  -0.05   0.12     0.22  -0.13   0.32    -0.05   0.03  -0.07
     9   1     0.06  -0.06  -0.12    -0.23   0.14   0.32     0.05  -0.03  -0.07
    10   1     0.30   0.19   0.00     0.00   0.00  -0.03     0.00   0.00   0.01
    11   1     0.50   0.17   0.07     0.03   0.03   0.02     0.01   0.01   0.00
    12   1     0.08  -0.08  -0.17     0.21  -0.11  -0.34     0.03  -0.01  -0.04
    13   1    -0.03   0.24  -0.01     0.00  -0.39   0.03     0.00  -0.04   0.00
    14   6    -0.02  -0.02   0.00     0.00   0.00   0.00     0.00   0.00  -0.09
    15  53     0.00   0.00   0.00     0.00   0.00   0.00     0.00   0.00   0.00
    16   1     0.00   0.06   0.11     0.00   0.00   0.00     0.06   0.41   0.56
    17   1     0.00   0.07  -0.11     0.00   0.00   0.00    -0.08  -0.42   0.55
    18   1     0.25   0.12   0.00     0.00   0.00   0.00     0.00   0.00  -0.04
                     43                     44                     45
                      A                      A                      A
 Frequencies --   2662.4163              2662.4613              2750.1081
 Red. masses --      1.0850                 1.0849                 1.0245
 Frc consts  --      4.5314                 4.5310                 4.5654
 IR Inten    --     97.9144                70.1506               108.2601
  Atom  AN      X      Y      Z        X      Y      Z        X      Y      Z
     1   6    -0.01   0.02  -0.01     0.02  -0.05   0.03     0.00   0.00   0.01
     2   7     0.00   0.00  -0.01     0.00  -0.01   0.00     0.00   0.00   0.00
     3   6     0.00   0.00  -0.07     0.00   0.00   0.01     0.00   0.00   0.00
     4   6     0.02  -0.03  -0.02     0.02  -0.04  -0.03     0.00   0.00   0.00
     5   1     0.00  -0.20  -0.01    -0.01   0.53   0.02     0.00  -0.08   0.00
     6   1     0.03   0.02  -0.01     0.00  -0.03   0.02     0.05   0.02   0.00
     7   1     0.10  -0.04   0.17    -0.28   0.12  -0.46    -0.04   0.02  -0.07
     8   1     0.30  -0.17   0.43    -0.05   0.03  -0.07    -0.04   0.02  -0.06
     9   1    -0.30   0.19   0.42     0.05  -0.03  -0.08    -0.04   0.02   0.06
    10   1     0.00   0.00  -0.04    -0.03  -0.02   0.01     0.04   0.02   0.00
    11   1    -0.03  -0.03  -0.02     0.01  -0.02  -0.02     0.05   0.02   0.00
    12   1    -0.19   0.09   0.31    -0.23   0.11   0.37    -0.04   0.03   0.07
    13   1     0.00   0.36  -0.03    -0.01   0.43  -0.03     0.00  -0.08   0.00
    14   6     0.00   0.00  -0.01     0.00   0.00   0.00     0.02  -0.03   0.00
    15  53     0.00   0.00   0.00     0.00   0.00   0.00     0.00   0.00   0.00
    16   1     0.01   0.06   0.08     0.00  -0.01  -0.02     0.06   0.33   0.50
    17   1    -0.01  -0.06   0.08     0.00   0.01  -0.01     0.07   0.34  -0.49
    18   1     0.00   0.00  -0.01     0.00   0.00   0.00    -0.43  -0.23  -0.01
                     46                     47                     48
                      A                      A                      A
 Frequencies --   2759.8065              2760.6344              2760.8052
 Red. masses --      1.0281                 1.0281                 1.0277
 Frc consts  --      4.6135                 4.6166                 4.6150
 IR Inten    --     11.3874                25.7497                20.3223
  Atom  AN      X      Y      Z        X      Y      Z        X      Y      Z
     1   6     0.00   0.00   0.00     0.01  -0.02  -0.03     0.01  -0.01  -0.02
     2   7     0.00   0.01   0.00     0.00   0.00  -0.01     0.01  -0.01   0.00
     3   6    -0.02   0.04   0.00     0.00   0.00   0.00     0.00   0.00   0.00
     4   6     0.00   0.00   0.00    -0.01   0.01  -0.02     0.01  -0.01   0.03
     5   1     0.00  -0.04   0.00    -0.01   0.50  -0.01    -0.01   0.34   0.00
     6   1     0.02   0.01   0.00    -0.39  -0.14   0.04    -0.26  -0.09   0.03
     7   1    -0.01   0.01  -0.02     0.26  -0.13   0.42     0.17  -0.09   0.26
     8   1     0.31  -0.17   0.49     0.01  -0.01   0.02     0.01   0.00   0.02
     9   1     0.32  -0.19  -0.48     0.00   0.00   0.00     0.01  -0.01  -0.02
    10   1    -0.43  -0.24   0.00    -0.01   0.00   0.00    -0.02  -0.01   0.00
    11   1     0.02   0.01   0.00     0.27   0.10   0.03    -0.39  -0.14  -0.04
    12   1    -0.01   0.01   0.01    -0.18   0.10   0.28     0.26  -0.15  -0.39
    13   1     0.00  -0.03   0.00     0.01  -0.33   0.01    -0.01   0.50  -0.01
    14   6     0.00   0.00   0.00     0.00   0.00   0.00     0.01   0.00   0.00
    15  53     0.00   0.00   0.00     0.00   0.00   0.00     0.00   0.00   0.00
    16   1     0.01   0.03   0.05     0.00   0.01   0.02     0.01   0.06   0.08
    17   1     0.01   0.03  -0.05     0.00   0.01  -0.02     0.01   0.06  -0.08
    18   1    -0.06  -0.03   0.00    -0.02  -0.01   0.00    -0.10  -0.05   0.00

 -------------------
 - Thermochemistry -
 -------------------
 Temperature   298.150 Kelvin.  Pressure   1.00000 Atm.
 Atom     1 has atomic number  6 and mass  12.00000
 Atom     2 has atomic number  7 and mass  14.00307
 Atom     3 has atomic number  6 and mass  12.00000
 Atom     4 has atomic number  6 and mass  12.00000
 Atom     5 has atomic number  1 and mass   1.00783
 Atom     6 has atomic number  1 and mass   1.00783
 Atom     7 has atomic number  1 and mass   1.00783
 Atom     8 has atomic number  1 and mass   1.00783
 Atom     9 has atomic number  1 and mass   1.00783
 Atom    10 has atomic number  1 and mass   1.00783
 Atom    11 has atomic number  1 and mass   1.00783
 Atom    12 has atomic number  1 and mass   1.00783
 Atom    13 has atomic number  1 and mass   1.00783
 Atom    14 has atomic number  6 and mass  12.00000
 Atom    15 has atomic number 53 and mass 126.90040
 Atom    16 has atomic number  1 and mass   1.00783
 Atom    17 has atomic number  1 and mass   1.00783
 Atom    18 has atomic number  1 and mass   1.00783
 Molecular mass:   200.99737 amu.
 Principal axes and moments of inertia in atomic units:
                           1         2         3
     Eigenvalues --   483.103143834.831853931.23101
           X            0.99999   0.00345   0.00006
           Y           -0.00345   0.99999   0.00014
           Z           -0.00006  -0.00014   1.00000
 This molecule is an asymmetric top.
 Rotational symmetry number  1.
 Warning -- assumption of classical behavior for rotation
           may cause significant error
 Rotational temperatures (Kelvin)      0.17929     0.02259     0.02203
 Rotational constants (GHZ):           3.73573     0.47062     0.45908
    2 imaginary frequencies ignored.
 Zero-point vibrational energy     377154.4 (Joules/Mol)
                                   90.14207 (Kcal/Mol)
 Warning -- explicit consideration of  10 degrees of freedom as
           vibrations may cause significant error
 Vibrational temperatures:     32.09    75.32   101.27   106.63   182.11
          (Kelvin)            233.41   235.49   619.41   622.89   624.16
                              954.57  1405.99  1425.51  1428.67  1525.68
                             1525.88  1541.83  1567.62  1568.84  1742.72
                             1844.14  1850.15  1854.27  1855.57  1856.96
                             1863.96  1866.32  1879.96  1926.36  1926.93
                             1930.72  2039.67  2040.16  2040.57  3801.69
                             3811.75  3813.35  3818.19  3822.29  3826.44
                             3830.62  3830.69  3956.79  3970.75  3971.94
                             3972.18
 
 Zero-point correction=                           0.143651 (Hartree/Particle)
 Thermal correction to Energy=                    0.153091
 Thermal correction to Enthalpy=                  0.154035
 Thermal correction to Gibbs Free Energy=         0.104881
 Sum of electronic and zero-point Energies=              0.136684
 Sum of electronic and thermal Energies=                 0.146125
 Sum of electronic and thermal Enthalpies=               0.147069
 Sum of electronic and thermal Free Energies=            0.097914
 
                     E (Thermal)             CV                S
                      KCal/Mol        Cal/Mol-Kelvin    Cal/Mol-Kelvin
 Total                   96.066             29.459            103.454
 Electronic               0.000              0.000              0.000
 Translational            0.889              2.981             41.799
 Rotational               0.889              2.981             30.366
 Vibrational             94.289             23.498             31.289
 Vibration     1          0.593              1.985              6.418
 Vibration     2          0.596              1.977              4.727
 Vibration     3          0.598              1.968              4.143
 Vibration     4          0.599              1.966              4.041
 Vibration     5          0.611              1.927              2.998
 Vibration     6          0.622              1.889              2.524
 Vibration     7          0.623              1.887              2.507
 Vibration     8          0.792              1.404              0.857
 Vibration     9          0.794              1.398              0.849
 Vibration    10          0.795              1.397              0.846
                       Q            Log10(Q)             Ln(Q)
 Total Bot       0.573178D-48        -48.241711       -111.080644
 Total V=0       0.680596D+18         17.832890         41.061746
 Vib (Bot)       0.529721D-62        -62.275953       -143.395681
 Vib (Bot)    1  0.928784D+01          0.967915          2.228706
 Vib (Bot)    2  0.394780D+01          0.596356          1.373160
 Vib (Bot)    3  0.292998D+01          0.466865          1.074996
 Vib (Bot)    4  0.278138D+01          0.444261          1.022948
 Vib (Bot)    5  0.161205D+01          0.207378          0.477505
 Vib (Bot)    6  0.124532D+01          0.095280          0.219390
 Vib (Bot)    7  0.123375D+01          0.091227          0.210057
 Vib (Bot)    8  0.404566D+00         -0.393010         -0.904939
 Vib (Bot)    9  0.401538D+00         -0.396273         -0.912452
 Vib (Bot)   10  0.400447D+00         -0.397455         -0.915173
 Vib (V=0)       0.628995D+04          3.798647          8.746708
 Vib (V=0)    1  0.980128D+01          0.991283          2.282513
 Vib (V=0)    2  0.447934D+01          0.651214          1.499476
 Vib (V=0)    3  0.347234D+01          0.540622          1.244828
 Vib (V=0)    4  0.332597D+01          0.521918          1.201760
 Vib (V=0)    5  0.218781D+01          0.340009          0.782900
 Vib (V=0)    6  0.184194D+01          0.265276          0.610822
 Vib (V=0)    7  0.183122D+01          0.262740          0.604980
 Vib (V=0)    8  0.114317D+01          0.058113          0.133809
 Vib (V=0)    9  0.114127D+01          0.057390          0.132146
 Vib (V=0)   10  0.114059D+01          0.057130          0.131547
 Electronic      0.100000D+01          0.000000          0.000000
 Translational   0.112006D+09          8.049239         18.534059
 Rotational      0.966057D+06          5.985003         13.780979
 ***** Axes restored to original set *****
 -------------------------------------------------------------------
 Center     Atomic                   Forces (Hartrees/Bohr)
 Number     Number              X              Y              Z
 -------------------------------------------------------------------
      1        6          -0.000100503    0.000003136    0.000034719
      2        7          -0.000088934    0.000055359   -0.000080725
      3        6           0.000114734   -0.000014712    0.000004143
      4        6          -0.000007369   -0.000005994    0.000009489
      5        1          -0.000009078   -0.000003526    0.000007163
      6        1           0.000005000    0.000008062   -0.000037646
      7        1          -0.000010291   -0.000007317   -0.000000742
      8        1           0.000016791   -0.000011030   -0.000000121
      9        1          -0.000002056    0.000004835    0.000000731
     10        1          -0.000202766    0.000082970   -0.000200398
     11        1          -0.000000015   -0.000002231    0.000001564
     12        1           0.000000820   -0.000002821   -0.000000802
     13        1          -0.000000323   -0.000003079   -0.000000282
     14        6          -0.000116064    0.000021218   -0.000052411
     15       53          -0.000182336    0.000072840   -0.000200637
     16        1           0.000015235    0.000010569    0.000024064
     17        1           0.000002361    0.000017870   -0.000015937
     18        1           0.000564792   -0.000226150    0.000507829
 -------------------------------------------------------------------
 Cartesian Forces:  Max     0.000564792 RMS     0.000126038
 FormGI is forming the generalized inverse of G from B-inverse, IUseBI=4.
 Leave Link  716 at Sat Dec 13 17:04:06 2025, MaxMem=   536870912 cpu:               0.0 elap:               0.2
 (Enter D:\G16W\l9999.exe)

 ----------------------------------------------------------------------

 Electric dipole moment (input orientation):
 (Debye = 10**-18 statcoulomb cm , SI units = C m)
                  (au)            (Debye)         (10**-30 SI)
   Tot        0.860822D+00      0.218799D+01      0.729835D+01
   x          0.748780D+00      0.190321D+01      0.634842D+01
   y         -0.319708D+00     -0.812616D+00     -0.271060D+01
   z          0.279516D+00      0.710460D+00      0.236984D+01

 Dipole polarizability, Alpha (input orientation).
 (esu units = cm**3 , SI units = C**2 m**2 J**-1)
 Alpha(0;0):
               (au)            (10**-24 esu)      (10**-40 SI)
   iso        0.479684D+02      0.710819D+01      0.790893D+01
   aniso      0.326541D+02      0.483884D+01      0.538394D+01
   xx         0.584619D+02      0.866317D+01      0.963907D+01
   yx        -0.108395D+02     -0.160624D+01     -0.178719D+01
   yy         0.438257D+02      0.649430D+01      0.722588D+01
   zx        -0.110662D+02     -0.163984D+01     -0.182457D+01
   zy         0.562772D+01      0.833941D+00      0.927885D+00
   zz         0.416177D+02      0.616711D+01      0.686183D+01

 First dipole hyperpolarizability, Beta (input orientation).
 ||, _|_  parallel and perpendicular components, (z) with respect to z axis,
 vector components x,y,z.  Values do not include the 1/n! factor of 1/2.
 (esu units = statvolt**-1 cm**4 , SI units = C**3 m**3 J**-2)
 Beta(0;0,0):
               (au)            (10**-30 esu)      (10**-50 SI)
   || (z)    -0.809868D+00     -0.699663D-02     -0.259673D-02
   _|_(z)    -0.269956D+00     -0.233221D-02     -0.865576D-03
   x          0.422295D+03      0.364830D+01      0.135403D+01
   y         -0.198575D+03     -0.171553D+01     -0.636703D+00
   z         -0.404934D+01     -0.349831D-01     -0.129836D-01
   ||         0.933342D+02      0.806334D+00      0.299263D+00
   xxx        0.899239D+02      0.776873D+00      0.288329D+00
   xxy       -0.475225D+02     -0.410557D+00     -0.152374D+00
   yxy        0.235330D+02      0.203307D+00      0.754553D-01
   yyy       -0.676083D+01     -0.584083D-01     -0.216777D-01
   xxz       -0.242397D+02     -0.209412D+00     -0.777213D-01
   yxz        0.183391D+02      0.158435D+00      0.588017D-01
   yyz       -0.256221D+01     -0.221355D-01     -0.821536D-02
   zxz        0.273081D+02      0.235921D+00      0.875597D-01
   zyz       -0.119083D+02     -0.102879D+00     -0.381823D-01
   zzz        0.254522D+02      0.219887D+00      0.816088D-01

 ----------------------------------------------------------------------

 Dipole orientation:
     6         -1.79230332         -1.79092664         -1.28450141
     7          0.47644602         -0.45425069         -0.35478287
     6          0.63892045         -0.59287544          2.42941884
     6          0.48692004          2.20084246         -1.22056739
     1         -1.79111870         -1.75133818         -3.36890745
     1         -3.60212666         -1.01917762         -0.61988999
     1         -1.67893876         -3.79168363         -0.71223584
     1          0.75106044         -2.59532968          2.99779092
     1          2.41056759          0.31577131          3.04664051
     1         -0.93961291          0.28981213          3.45068550
     1         -1.10654034          3.35080168         -0.54933228
     1          2.25964563          3.10553629         -0.60223426
     1          0.48159213          2.23019830         -3.30512718
     6         -5.79791596          3.11152122          2.80044103
    53         -8.28461545          4.51259639         -0.06580396
     1         -5.12286813          4.69114909          3.94124314
     1         -6.82318841          1.77527953          3.99056127
     1         -4.20257644          2.16639569          1.88838527

 Electric dipole moment (dipole orientation):
 (Debye = 10**-18 statcoulomb cm , SI units = C m)
                  (au)            (Debye)         (10**-30 SI)
   Tot        0.860822D+00      0.218799D+01      0.729835D+01
   x          0.000000D+00      0.000000D+00      0.000000D+00
   y          0.000000D+00      0.000000D+00      0.000000D+00
   z          0.860822D+00      0.218799D+01      0.729835D+01

 Dipole polarizability, Alpha (dipole orientation).
 (esu units = cm**3 , SI units = C**2 m**2 J**-1)
 Alpha(0;0):
               (au)            (10**-24 esu)      (10**-40 SI)
   iso        0.479684D+02      0.710819D+01      0.790893D+01
   aniso      0.326541D+02      0.483884D+01      0.538394D+01
   xx         0.484477D+02      0.717920D+01      0.798794D+01
   yx        -0.585583D+01     -0.867744D+00     -0.965495D+00
   yy         0.413956D+02      0.613419D+01      0.682521D+01
   zx         0.146060D+02      0.216439D+01      0.240821D+01
   zy        -0.821711D+01     -0.121765D+01     -0.135482D+01
   zz         0.540621D+02      0.801117D+01      0.891363D+01

 First dipole hyperpolarizability, Beta (dipole orientation).
 ||, _|_  parallel and perpendicular components, (z) with respect to z axis,
 vector components x,y,z.  Values do not include the 1/n! factor of 1/2.
 (esu units = statvolt**-1 cm**4 , SI units = C**3 m**3 J**-2)
 Beta(0;0,0):
               (au)            (10**-30 esu)      (10**-50 SI)
   || (z)     0.879532D+02      0.759848D+00      0.282010D+00
   _|_(z)     0.293177D+02      0.253283D+00      0.940033D-01
   x          0.136190D+03      0.117658D+01      0.436676D+00
   y         -0.764163D+02     -0.660177D+00     -0.245018D+00
   z          0.439766D+03      0.379924D+01      0.141005D+01
   ||         0.933342D+02      0.806334D+00      0.299263D+00
   xxx        0.765932D+01      0.661705D-01      0.245585D-01
   xxy       -0.124587D+02     -0.107633D+00     -0.399470D-01
   yxy        0.255139D+01      0.220420D-01      0.818069D-02
   yyy        0.734131D+01      0.634232D-01      0.235389D-01
   xxz        0.445088D+02      0.384522D+00      0.142711D+00
   yxz       -0.252783D+02     -0.218385D+00     -0.810515D-01
   yyz        0.139857D+02      0.120825D+00      0.448431D-01
   zxz        0.351861D+02      0.303981D+00      0.112819D+00
   zyz       -0.203547D+02     -0.175849D+00     -0.652646D-01
   zzz        0.880942D+02      0.761065D+00      0.282462D+00

 ----------------------------------------------------------------------


 THERE IS NO SUBJECT, HOWEVER COMPLEX,
 WHICH, IF STUDIED WITH PATIENCE AND INTELLIGIENCE
 WILL NOT BECOME
 MORE COMPLEX
                        QUOTED BY D. GORDON ROHMAN
 Error termination request processed by link 9999.
 Error termination via Lnk1e in D:\G16W\l9999.exe at Sat Dec 13 17:04:07 2025.
 Job cpu time:       0 days  0 hours  6 minutes 37.0 seconds.
 Elapsed time:       0 days  0 hours  5 minutes  7.7 seconds.
 File lengths (MBytes):  RWF=     17 Int=      0 D2E=      0 Chk=      2 Scr=      1
