 Entering Gaussian System, Link 0=g16.exe
 Input=Me3N_irc.gjf
 Output=Me3N_irc.log
 Initial command:
 D:\G16W\l1.exe ".\Gau-28640.inp" "Me3N_irc.log" /scrdir=".\"
 Entering Link 1 = D:\G16W\l1.exe PID=     16928.
  
 Copyright (c) 1988,1990,1992,1993,1995,1998,2003,2009,2016,
            Gaussian, Inc.  All Rights Reserved.
  
 This is part of the Gaussian(R) 16 program.  It is based on
 the Gaussian(R) 09 system (copyright 2009, Gaussian, Inc.),
 the Gaussian(R) 03 system (copyright 2003, Gaussian, Inc.),
 the Gaussian(R) 98 system (copyright 1998, Gaussian, Inc.),
 the Gaussian(R) 94 system (copyright 1995, Gaussian, Inc.),
 the Gaussian 92(TM) system (copyright 1992, Gaussian, Inc.),
 the Gaussian 90(TM) system (copyright 1990, Gaussian, Inc.),
 the Gaussian 88(TM) system (copyright 1988, Gaussian, Inc.),
 the Gaussian 86(TM) system (copyright 1986, Carnegie Mellon
 University), and the Gaussian 82(TM) system (copyright 1983,
 Carnegie Mellon University). Gaussian is a federally registered
 trademark of Gaussian, Inc.
  
 This software contains proprietary and confidential information,
 including trade secrets, belonging to Gaussian, Inc.
  
 This software is provided under written license and may be
 used, copied, transmitted, or stored only in accord with that
 written license.
  
 The following legend is applicable only to US Government
 contracts under FAR:
  
                    RESTRICTED RIGHTS LEGEND
  
 Use, reproduction and disclosure by the US Government is
 subject to restrictions as set forth in subparagraphs (a)
 and (c) of the Commercial Computer Software - Restricted
 Rights clause in FAR 52.227-19.
  
 Gaussian, Inc.
 340 Quinnipiac St., Bldg. 40, Wallingford CT 06492
  
  
 ---------------------------------------------------------------
 Warning -- This program may not be used in any manner that
 competes with the business of Gaussian, Inc. or will provide
 assistance to any competitor of Gaussian, Inc.  The licensee
 of this program is prohibited from giving any competitor of
 Gaussian, Inc. access to this program.  By using this program,
 the user acknowledges that Gaussian, Inc. is engaged in the
 business of creating and licensing software in the field of
 computational chemistry and represents and warrants to the
 licensee that it is not a competitor of Gaussian, Inc. and that
 it will not use this program in any manner prohibited above.
 ---------------------------------------------------------------
  

 Cite this work as:
 Gaussian 16, Revision A.03,
 M. J. Frisch, G. W. Trucks, H. B. Schlegel, G. E. Scuseria, 
 M. A. Robb, J. R. Cheeseman, G. Scalmani, V. Barone, 
 G. A. Petersson, H. Nakatsuji, X. Li, M. Caricato, A. V. Marenich, 
 J. Bloino, B. G. Janesko, R. Gomperts, B. Mennucci, H. P. Hratchian, 
 J. V. Ortiz, A. F. Izmaylov, J. L. Sonnenberg, D. Williams-Young, 
 F. Ding, F. Lipparini, F. Egidi, J. Goings, B. Peng, A. Petrone, 
 T. Henderson, D. Ranasinghe, V. G. Zakrzewski, J. Gao, N. Rega, 
 G. Zheng, W. Liang, M. Hada, M. Ehara, K. Toyota, R. Fukuda, 
 J. Hasegawa, M. Ishida, T. Nakajima, Y. Honda, O. Kitao, H. Nakai, 
 T. Vreven, K. Throssell, J. A. Montgomery, Jr., J. E. Peralta, 
 F. Ogliaro, M. J. Bearpark, J. J. Heyd, E. N. Brothers, K. N. Kudin, 
 V. N. Staroverov, T. A. Keith, R. Kobayashi, J. Normand, 
 K. Raghavachari, A. P. Rendell, J. C. Burant, S. S. Iyengar, 
 J. Tomasi, M. Cossi, J. M. Millam, M. Klene, C. Adamo, R. Cammi, 
 J. W. Ochterski, R. L. Martin, K. Morokuma, O. Farkas, 
 J. B. Foresman, and D. J. Fox, Gaussian, Inc., Wallingford CT, 2016.
 
 ******************************************
 Gaussian 16:  EM64W-G16RevA.03 17-Dec-2016
                13-Dec-2025 
 ******************************************
 %nproc=6
 Will use up to    6 processors via shared memory.
 %mem=4GB
 ------------------------------------------
 #PM7 IRC(CalcFC, MaxPoints=20, StepSize=5)
 ------------------------------------------
 1/10=4,18=10,26=1,38=1,39=5,42=20,44=3,172=1/1,23;
 2/12=2,17=6,18=5,29=1,40=1/2;
 3/5=2,25=1,41=4200000,71=2,140=1/1,2,3;
 4/35=1/1;
 5/5=2,35=1,38=5/2;
 8/6=4,10=90,11=11/1;
 11/6=1,8=1,9=11,15=111,16=1/1,2,10;
 10/6=1,13=1/2;
 6/7=2,8=2,9=2,10=2,28=1/1;
 7/10=1,18=20,25=1/1,2,3,16;
 1/10=4,18=10,26=1,39=5,42=20,44=3/23(2);
 2/29=1/2;
 99/5=20/99;
 2/29=1/2;
 3/5=2,25=1,41=4200000,71=2,135=20,140=1/1,2,3;
 4/5=5,16=3,35=1/1;
 5/5=2,35=1,38=5/2;
 8/6=4,10=90,11=11/1;
 11/6=1,8=1,9=11,15=111,16=1/1,2,10;
 10/6=1,13=1/2;
 7/10=1,18=20,25=1/1,2,3,16;
 1/18=10,26=1,39=5,42=20,44=3/23(-8);
 2/29=1/2;
 6/7=2,8=2,9=2,10=2,19=2,28=1/1;
 99/5=20,9=1/99;
 Leave Link    1 at Sat Dec 13 14:59:52 2025, MaxMem=   536870912 cpu:               0.0 elap:               0.1
 (Enter D:\G16W\l101.exe)
 ---------------
 title: Me3N_IRC
 ---------------
 Symbolic Z-matrix:
 Charge =  0 Multiplicity = 1
 C                     3.24767   0.73603  -0.0833 
 N                     2.43278  -0.20677   0.72705 
 C                     2.52309   0.13614   2.1706 
 C                     2.87522  -1.60704   0.49659 
 H                     3.14556   0.50052  -1.15771 
 H                     4.31859   0.70857   0.17056 
 H                     2.88899   1.77067   0.06205 
 H                     2.15635   1.1641    2.34103 
 H                     1.88497  -0.54316   2.76356 
 H                     3.5485    0.071     2.56602 
 H                     3.92274  -1.78165   0.78687 
 H                     2.24101  -2.30573   1.07093 
 H                     2.76897  -1.86862  -0.57137 
 C                     0.63457  -0.05394   0.18965 
 I                    -1.91032   0.16237  -0.57091 
 H                     0.55807   0.99694   0.44475 
 H                     0.27261  -0.79885   0.8892 
 H                     0.82794  -0.33907  -0.83826 
 
 ITRead=  0  0  0  0  0  0  0  0  0  0  0  0  0  0  0  0  0  0
 MicOpt= -1 -1 -1 -1 -1 -1 -1 -1 -1 -1 -1 -1 -1 -1 -1 -1 -1 -1
 NAtoms=     18 NQM=       18 NQMF=       0 NMMI=      0 NMMIF=      0
                NMic=       0 NMicF=      0.
                    Isotopes and Nuclear Properties:
 (Nuclear quadrupole moments (NQMom) in fm**2, nuclear magnetic moments (NMagM)
  in nuclear magnetons)

  Atom         1           2           3           4           5           6           7           8           9          10
 IAtWgt=          12          14          12          12           1           1           1           1           1           1
 AtmWgt=  12.0000000  14.0030740  12.0000000  12.0000000   1.0078250   1.0078250   1.0078250   1.0078250   1.0078250   1.0078250
 NucSpn=           0           2           0           0           1           1           1           1           1           1
 AtZEff=   0.0000000   0.0000000   0.0000000   0.0000000   0.0000000   0.0000000   0.0000000   0.0000000   0.0000000   0.0000000
 NQMom=    0.0000000   2.0440000   0.0000000   0.0000000   0.0000000   0.0000000   0.0000000   0.0000000   0.0000000   0.0000000
 NMagM=    0.0000000   0.4037610   0.0000000   0.0000000   2.7928460   2.7928460   2.7928460   2.7928460   2.7928460   2.7928460
 AtZNuc=   6.0000000   7.0000000   6.0000000   6.0000000   1.0000000   1.0000000   1.0000000   1.0000000   1.0000000   1.0000000

  Atom        11          12          13          14          15          16          17          18
 IAtWgt=           1           1           1          12         127           1           1           1
 AtmWgt=   1.0078250   1.0078250   1.0078250  12.0000000 126.9004000   1.0078250   1.0078250   1.0078250
 NucSpn=           1           1           1           0           5           1           1           1
 AtZEff=   0.0000000   0.0000000   0.0000000   0.0000000   0.0000000   0.0000000   0.0000000   0.0000000
 NQMom=    0.0000000   0.0000000   0.0000000   0.0000000 -71.0000000   0.0000000   0.0000000   0.0000000
 NMagM=    2.7928460   2.7928460   2.7928460   0.0000000   2.8132800   2.7928460   2.7928460   2.7928460
 AtZNuc=   1.0000000   1.0000000   1.0000000   6.0000000  53.0000000   1.0000000   1.0000000   1.0000000
 Leave Link  101 at Sat Dec 13 14:59:53 2025, MaxMem=   536870912 cpu:               0.0 elap:               0.2
 (Enter D:\G16W\l123.exe)
 IRC-IRC-IRC-IRC-IRC-IRC-IRC-IRC-IRC-IRC-IRC-IRC-IRC-IRC-IRC-IRC-IRC-IRC
 ------------------------------------------------------------------------
 INPUT DATA FOR L123
 ------------------------------------------------------------------------
 GENERAL PARAMETERS:
 Follow reaction path in both directions.
 Maximum points per path      =  20
 Step size                    =   0.050 bohr
 Integration scheme           = HPC                                 
    Redo corrector integration= Yes                                 
    DWI Weight Power          =  2
    DWI will use Hessian update vectors when possible.
    Max correction cycles     =  20
 Initial Hessian              = CalcFC
 Hessian evaluation           = All updating
 Hessian updating method      = Bofill                              
 ------------------------------------------------------------------------
 IRC-IRC-IRC-IRC-IRC-IRC-IRC-IRC-IRC-IRC-IRC-IRC-IRC-IRC-IRC-IRC-IRC-IRC
 Leave Link  123 at Sat Dec 13 14:59:53 2025, MaxMem=   536870912 cpu:               0.0 elap:               0.1
 (Enter D:\G16W\l202.exe)
                          Input orientation:                          
 ---------------------------------------------------------------------
 Center     Atomic      Atomic             Coordinates (Angstroms)
 Number     Number       Type             X           Y           Z
 ---------------------------------------------------------------------
      1          6           0        3.247668    0.736032   -0.083303
      2          7           0        2.432776   -0.206774    0.727046
      3          6           0        2.523090    0.136139    2.170601
      4          6           0        2.875215   -1.607037    0.496590
      5          1           0        3.145565    0.500515   -1.157713
      6          1           0        4.318585    0.708570    0.170558
      7          1           0        2.888993    1.770669    0.062045
      8          1           0        2.156353    1.164102    2.341026
      9          1           0        1.884968   -0.543160    2.763561
     10          1           0        3.548502    0.071003    2.566015
     11          1           0        3.922741   -1.781651    0.786871
     12          1           0        2.241009   -2.305730    1.070925
     13          1           0        2.768969   -1.868622   -0.571368
     14          6           0        0.634572   -0.053936    0.189645
     15         53           0       -1.910321    0.162368   -0.570908
     16          1           0        0.558066    0.996944    0.444748
     17          1           0        0.272608   -0.798846    0.889195
     18          1           0        0.827944   -0.339073   -0.838258
 ---------------------------------------------------------------------
                    Distance matrix (angstroms):
                    1          2          3          4          5
     1  C    0.000000
     2  N    1.486472   0.000000
     3  C    2.442328   1.486471   0.000000
     4  C    2.442329   1.486472   2.442328   0.000000
     5  H    1.104649   2.135566   3.405572   2.692876   0.000000
     6  H    1.100937   2.168827   2.748027   2.748026   1.784255
     7  H    1.104648   2.135566   2.692876   3.405571   1.779587
     8  H    2.692876   2.135566   1.104649   3.405572   3.695952
     9  H    3.405572   2.135566   1.104649   2.692876   4.249088
    10  H    2.748027   2.168827   1.100938   2.748027   3.770012
    11  H    2.748027   2.168827   2.748027   1.100938   3.097368
    12  H    3.405572   2.135566   2.692876   1.104649   3.695952
    13  H    2.692876   2.135566   3.405571   1.104649   2.469501
    14  C    2.743505   1.883002   2.743504   2.743505   2.903080
    15  I    5.212648   4.547905   5.212647   5.212648   5.101046
    16  H    2.753338   2.245700   2.753339   3.486056   3.083744
    17  H    3.486056   2.245700   2.753338   2.753339   3.759262
    18  H    2.753338   2.245699   3.486055   2.753338   2.485624
                    6          7          8          9         10
     6  H    0.000000
     7  H    1.784254   0.000000
     8  H    3.097368   2.469502   0.000000
     9  H    3.770011   3.695952   1.779587   0.000000
    10  H    2.595714   3.097367   1.784255   1.784255   0.000000
    11  H    2.595715   3.770011   3.770011   3.097367   2.595715
    12  H    3.770012   4.249088   3.695951   2.469501   3.097369
    13  H    3.097367   3.695951   4.249088   3.695952   3.770012
    14  C    3.762145   2.903081   2.903080   2.903080   3.762145
    15  I    6.296616   5.101047   5.101046   5.101046   6.296617
    16  H    3.781513   2.485625   2.485625   3.083745   3.781514
    17  H    4.377062   3.759263   3.083743   2.485624   3.781513
    18  H    3.781513   3.083744   3.759262   3.759262   4.377062
                   11         12         13         14         15
    11  H    0.000000
    12  H    1.784256   0.000000
    13  H    1.784255   1.779587   0.000000
    14  C    3.762145   2.903079   2.903081   0.000000
    15  I    6.296617   5.101045   5.101047   2.664903   0.000000
    16  H    4.377063   3.759262   3.759262   1.084103   2.796607
    17  H    3.781514   2.485624   3.083745   1.084103   2.796607
    18  H    3.781513   3.083743   2.485624   1.084104   2.796608
                   16         17         18
    16  H    0.000000
    17  H    1.871866   0.000000
    18  H    1.871865   1.871866   0.000000
 Symmetry turned off by external request.
 This structure is nearly, but not quite of a higher symmetry.
 Consider Symm=Loose if the higher symmetry is desired.
 Stoichiometry    C4H12IN
 Framework group  C1[X(C4H12IN)]
 Deg. of freedom    48
 Full point group                 C1      NOp   1
 Rotational constants (GHZ):           4.6180631           0.4788888           0.4788888
 Leave Link  202 at Sat Dec 13 14:59:53 2025, MaxMem=   536870912 cpu:               0.0 elap:               0.1
 (Enter D:\G16W\l301.exe)
 Standard basis: VSTO-6G (5D, 7F)
 Ernie: Thresh=  0.10000D-02 Tol=  0.10000D-05 Strict=F.
 EHB=         0.000000000 Number of Hydrogen Bonds=     0
  NNHCO=     0 NNPyr=     0 NCTC=     0               EPep=         0.000000000
    EC=       130.838962732  ECS=         2.647778293   EG=         0.472941978
   EHC=         0.000431668  EAt=       -36.754028298  AtH=         2.306420954
 EPDDG=         0.000000000  ECC=       133.960114671 EAtT=        39.060449251
  EHyb=         0.000000000
    41 basis functions,   252 primitive gaussians,    42 cartesian basis functions
    20 alpha electrons       20 beta electrons
       nuclear repulsion energy       173.0205639221 Hartrees.
 IExCor=    0 DFT=F Ex=HF Corr=None ExCW=0 ScaHFX=  1.000000
 ScaDFX=  1.000000  1.000000  1.000000  1.000000 ScalE2=  1.000000  1.000000
 IRadAn=      5 IRanWt=     -1 IRanGd=            0 ICorTp=0 IEmpDi=251
 Integral buffers will be    131072 words long.
 Regular integral format.
 Two-electron integral symmetry is turned off.
 R6Disp:  PM7 Dispersion energy=       -0.0029535582 Hartrees.
 Nuclear repulsion after empirical dispersion term =      173.0176103639 Hartrees.
 Leave Link  301 at Sat Dec 13 14:59:53 2025, MaxMem=   536870912 cpu:               0.0 elap:               0.1
 (Enter D:\G16W\l302.exe)
 Do NDO integrals.
 NPDir=0 NMtPBC=     1 NCelOv=     1 NCel=       1 NClECP=     1 NCelD=      1
         NCelK=      1 NCelE2=     1 NClLst=     1 CellRange=     0.0.
 One-electron integrals computed using PRISM.
 NBasis=    41 RedAO= F EigKep=  0.00D+00  NBF=    41
 NBsUse=    41 1.00D-04 EigRej=  0.00D+00 NBFU=    41
 Leave Link  302 at Sat Dec 13 14:59:53 2025, MaxMem=   536870912 cpu:               0.0 elap:               0.2
 (Enter D:\G16W\l303.exe)
 DipDrv:  MaxL=1.
 Leave Link  303 at Sat Dec 13 14:59:54 2025, MaxMem=   536870912 cpu:               1.0 elap:               0.1
 (Enter D:\G16W\l401.exe)
 Nonelectrostatic core Hamiltonian diagonalized for initial guess.
 JPrj=0 DoOrth=F DoCkMO=F.
 Leave Link  401 at Sat Dec 13 14:59:54 2025, MaxMem=   536870912 cpu:               0.0 elap:               0.1
 (Enter D:\G16W\l502.exe)
 Keep J ints in memory in canonical form, NReq=1852917.
 FoFCou: FMM=F IPFlag=           0 FMFlag=           0 FMFlg1=           0
         NFxFlg=           0 DoJE=F BraDBF=F KetDBF=F FulRan=T
         wScrn=  0.000000 ICntrl=       600 IOpCl=  2 I1Cent=           0 NGrid=           0
         NMat0=    1 NMatS0=    107 NMatT0=    0 NMatD0=    1 NMtDS0=    0 NMtDT0=    0
 Symmetry not used in FoFCou.
 Two-electron integral symmetry not used.
 Closed shell SCF:
 Using DIIS extrapolation, IDIIS=  1040.
 Overlap will be assumed to be unity.
 NGot=   536870912 LenX=   536801538 LenY=   536799333
 Requested convergence on RMS density matrix=1.00D-08 within 128 cycles.
 Requested convergence on MAX density matrix=1.00D-06.
 Requested convergence on             energy=1.00D-06.
 No special actions if energy rises.

 Cycle   1  Pass 1  IDiag  1:
 E= 0.648955560385389    
 DIIS: error= 4.05D-02 at cycle   1 NSaved=   1.
 NSaved= 1 IEnMin= 1 EnMin= 0.648955560385389     IErMin= 1 ErrMin= 4.05D-02
 ErrMax= 4.05D-02  0.00D+00 EMaxC= 1.00D-01 BMatC= 1.09D-01 BMatP= 1.09D-01
 IDIUse=3 WtCom= 5.95D-01 WtEn= 4.05D-01
 Coeff-Com:  0.100D+01
 Coeff-En:   0.100D+01
 Coeff:      0.100D+01
 GapD=    2.000 DampG=2.000 DampE=0.500 DampFc=1.0000 IDamp=-1.
 RMSDP=1.75D-02 MaxDP=1.35D-01              OVMax= 0.00D+00

 Cycle   2  Pass 1  IDiag  1:
 E= 0.182500415446441     Delta-E=       -0.466455144939 Rises=F Damp=F
 DIIS: error= 1.97D-02 at cycle   2 NSaved=   2.
 NSaved= 2 IEnMin= 2 EnMin= 0.182500415446441     IErMin= 2 ErrMin= 1.97D-02
 ErrMax= 1.97D-02  0.00D+00 EMaxC= 1.00D-01 BMatC= 2.21D-02 BMatP= 1.09D-01
 IDIUse=3 WtCom= 8.03D-01 WtEn= 1.97D-01
 Coeff-Com: -0.470D+00 0.147D+01
 Coeff-En:   0.000D+00 0.100D+01
 Coeff:     -0.378D+00 0.138D+01
 RMSDP=1.15D-02 MaxDP=1.40D-01 DE=-4.66D-01 OVMax= 0.00D+00

 Cycle   3  Pass 1  IDiag  3:
 E= 0.560805141876983E-01 Delta-E=       -0.126419901259 Rises=F Damp=F
 DIIS: error= 6.97D-03 at cycle   3 NSaved=   3.
 NSaved= 3 IEnMin= 3 EnMin= 0.560805141876983E-01 IErMin= 3 ErrMin= 6.97D-03
 ErrMax= 6.97D-03  0.00D+00 EMaxC= 1.00D-01 BMatC= 3.12D-03 BMatP= 2.21D-02
 IDIUse=3 WtCom= 9.30D-01 WtEn= 6.97D-02
 Coeff-Com:  0.141D-01-0.465D+00 0.145D+01
 Coeff-En:   0.000D+00 0.000D+00 0.100D+01
 Coeff:      0.132D-01-0.432D+00 0.142D+01
 Gap=     0.273 Goal=   None    Shift=    0.000
 RMSDP=5.35D-03 MaxDP=5.11D-02 DE=-1.26D-01 OVMax= 8.12D-02

 Cycle   4  Pass 1  IDiag  3:
 E= 0.372293452519159E-01 Delta-E=       -0.018851168936 Rises=F Damp=F
 DIIS: error= 1.53D-03 at cycle   4 NSaved=   4.
 NSaved= 4 IEnMin= 4 EnMin= 0.372293452519159E-01 IErMin= 4 ErrMin= 1.53D-03
 ErrMax= 1.53D-03  0.00D+00 EMaxC= 1.00D-01 BMatC= 2.03D-04 BMatP= 3.12D-03
 IDIUse=3 WtCom= 9.85D-01 WtEn= 1.53D-02
 Coeff-Com:  0.432D-01-0.104D+00-0.112D+00 0.117D+01
 Coeff-En:   0.000D+00 0.000D+00 0.000D+00 0.100D+01
 Coeff:      0.425D-01-0.103D+00-0.110D+00 0.117D+01
 Gap=     0.271 Goal=   None    Shift=    0.000
 RMSDP=1.25D-03 MaxDP=1.16D-02 DE=-1.89D-02 OVMax= 2.05D-02

 Cycle   5  Pass 1  IDiag  3:
 E= 0.361179920779193E-01 Delta-E=       -0.001111353174 Rises=F Damp=F
 DIIS: error= 5.02D-04 at cycle   5 NSaved=   5.
 NSaved= 5 IEnMin= 5 EnMin= 0.361179920779193E-01 IErMin= 5 ErrMin= 5.02D-04
 ErrMax= 5.02D-04  0.00D+00 EMaxC= 1.00D-01 BMatC= 1.92D-05 BMatP= 2.03D-04
 IDIUse=3 WtCom= 9.95D-01 WtEn= 5.02D-03
 Coeff-Com: -0.119D-01 0.491D-01-0.241D-01-0.508D+00 0.150D+01
 Coeff-En:   0.000D+00 0.000D+00 0.000D+00 0.000D+00 0.100D+01
 Coeff:     -0.118D-01 0.489D-01-0.240D-01-0.506D+00 0.149D+01
 Gap=     0.269 Goal=   None    Shift=    0.000
 RMSDP=4.34D-04 MaxDP=3.29D-03 DE=-1.11D-03 OVMax= 3.67D-03

 Cycle   6  Pass 1  IDiag  3:
 E= 0.360008694403859E-01 Delta-E=       -0.000117122638 Rises=F Damp=F
 DIIS: error= 1.10D-04 at cycle   6 NSaved=   6.
 NSaved= 6 IEnMin= 6 EnMin= 0.360008694403859E-01 IErMin= 6 ErrMin= 1.10D-04
 ErrMax= 1.10D-04  0.00D+00 EMaxC= 1.00D-01 BMatC= 7.82D-07 BMatP= 1.92D-05
 IDIUse=3 WtCom= 9.99D-01 WtEn= 1.10D-03
 Coeff-Com:  0.703D-03-0.514D-02-0.791D-03 0.110D+00-0.447D+00 0.134D+01
 Coeff-En:   0.000D+00 0.000D+00 0.000D+00 0.000D+00 0.000D+00 0.100D+01
 Coeff:      0.703D-03-0.514D-02-0.790D-03 0.110D+00-0.447D+00 0.134D+01
 Gap=     0.270 Goal=   None    Shift=    0.000
 RMSDP=8.31D-05 MaxDP=6.52D-04 DE=-1.17D-04 OVMax= 8.11D-04

 Cycle   7  Pass 1  IDiag  3:
 E= 0.359963545718642E-01 Delta-E=       -0.000004514869 Rises=F Damp=F
 DIIS: error= 3.78D-05 at cycle   7 NSaved=   7.
 NSaved= 7 IEnMin= 7 EnMin= 0.359963545718642E-01 IErMin= 7 ErrMin= 3.78D-05
 ErrMax= 3.78D-05  0.00D+00 EMaxC= 1.00D-01 BMatC= 4.91D-08 BMatP= 7.82D-07
 IDIUse=1 WtCom= 1.00D+00 WtEn= 0.00D+00
 Coeff-Com:  0.333D-03 0.381D-03-0.599D-03-0.166D-01 0.975D-01-0.449D+00
 Coeff-Com:  0.137D+01
 Coeff:      0.333D-03 0.381D-03-0.599D-03-0.166D-01 0.975D-01-0.449D+00
 Coeff:      0.137D+01
 Gap=     0.270 Goal=   None    Shift=    0.000
 RMSDP=2.08D-05 MaxDP=1.94D-04 DE=-4.51D-06 OVMax= 3.32D-04

 Cycle   8  Pass 1  IDiag  3:
 E= 0.359960556034196E-01 Delta-E=       -0.000000298968 Rises=F Damp=F
 DIIS: error= 9.40D-06 at cycle   8 NSaved=   8.
 NSaved= 8 IEnMin= 8 EnMin= 0.359960556034196E-01 IErMin= 8 ErrMin= 9.40D-06
 ErrMax= 9.40D-06  0.00D+00 EMaxC= 1.00D-01 BMatC= 3.80D-09 BMatP= 4.91D-08
 IDIUse=1 WtCom= 1.00D+00 WtEn= 0.00D+00
 Coeff-Com: -0.750D-04 0.134D-03-0.161D-03-0.172D-02 0.187D-02 0.392D-01
 Coeff-Com: -0.427D+00 0.139D+01
 Coeff:     -0.750D-04 0.134D-03-0.161D-03-0.172D-02 0.187D-02 0.392D-01
 Coeff:     -0.427D+00 0.139D+01
 Gap=     0.270 Goal=   None    Shift=    0.000
 RMSDP=6.80D-06 MaxDP=6.34D-05 DE=-2.99D-07 OVMax= 1.06D-04

 Cycle   9  Pass 1  IDiag  3:
 E= 0.359960306978167E-01 Delta-E=       -0.000000024906 Rises=F Damp=F
 DIIS: error= 1.67D-06 at cycle   9 NSaved=   9.
 NSaved= 9 IEnMin= 9 EnMin= 0.359960306978167E-01 IErMin= 9 ErrMin= 1.67D-06
 ErrMax= 1.67D-06  0.00D+00 EMaxC= 1.00D-01 BMatC= 1.33D-10 BMatP= 3.80D-09
 IDIUse=1 WtCom= 1.00D+00 WtEn= 0.00D+00
 Coeff-Com:  0.232D-05-0.115D-04 0.479D-04 0.903D-03-0.387D-02 0.553D-02
 Coeff-Com:  0.835D-01-0.455D+00 0.137D+01
 Coeff:      0.232D-05-0.115D-04 0.479D-04 0.903D-03-0.387D-02 0.553D-02
 Coeff:      0.835D-01-0.455D+00 0.137D+01
 Gap=     0.270 Goal=   None    Shift=    0.000
 RMSDP=1.13D-06 MaxDP=1.06D-05 DE=-2.49D-08 OVMax= 1.66D-05

 Cycle  10  Pass 1  IDiag  3:
 E= 0.359960299751947E-01 Delta-E=       -0.000000000723 Rises=F Damp=F
 DIIS: error= 3.47D-07 at cycle  10 NSaved=  10.
 NSaved=10 IEnMin=10 EnMin= 0.359960299751947E-01 IErMin=10 ErrMin= 3.47D-07
 ErrMax= 3.47D-07  0.00D+00 EMaxC= 1.00D-01 BMatC= 5.12D-12 BMatP= 1.33D-10
 IDIUse=1 WtCom= 1.00D+00 WtEn= 0.00D+00
 Coeff-Com:  0.212D-05-0.181D-05-0.125D-04-0.245D-03 0.118D-02-0.261D-02
 Coeff-Com: -0.159D-01 0.115D+00-0.475D+00 0.138D+01
 Coeff:      0.212D-05-0.181D-05-0.125D-04-0.245D-03 0.118D-02-0.261D-02
 Coeff:     -0.159D-01 0.115D+00-0.475D+00 0.138D+01
 Gap=     0.270 Goal=   None    Shift=    0.000
 RMSDP=1.82D-07 MaxDP=1.47D-06 DE=-7.23D-10 OVMax= 2.67D-06

 Cycle  11  Pass 1  IDiag  3:
 E= 0.359960299473698E-01 Delta-E=       -0.000000000028 Rises=F Damp=F
 DIIS: error= 4.87D-08 at cycle  11 NSaved=  11.
 NSaved=11 IEnMin=11 EnMin= 0.359960299473698E-01 IErMin=11 ErrMin= 4.87D-08
 ErrMax= 4.87D-08  0.00D+00 EMaxC= 1.00D-01 BMatC= 1.64D-13 BMatP= 5.12D-12
 IDIUse=1 WtCom= 1.00D+00 WtEn= 0.00D+00
 Coeff-Com: -0.317D-06 0.834D-07 0.324D-05 0.222D-04-0.127D-03 0.230D-03
 Coeff-Com:  0.216D-02-0.156D-01 0.724D-01-0.337D+00 0.128D+01
 Coeff:     -0.317D-06 0.834D-07 0.324D-05 0.222D-04-0.127D-03 0.230D-03
 Coeff:      0.216D-02-0.156D-01 0.724D-01-0.337D+00 0.128D+01
 Gap=     0.270 Goal=   None    Shift=    0.000
 RMSDP=3.47D-08 MaxDP=2.16D-07 DE=-2.78D-11 OVMax= 3.74D-07

 Cycle  12  Pass 1  IDiag  3:
 E= 0.359960299477109E-01 Delta-E=        0.000000000000 Rises=F Damp=F
 DIIS: error= 8.55D-09 at cycle  12 NSaved=  12.
 NSaved=12 IEnMin=11 EnMin= 0.359960299473698E-01 IErMin=12 ErrMin= 8.55D-09
 ErrMax= 8.55D-09  0.00D+00 EMaxC= 1.00D-01 BMatC= 5.26D-15 BMatP= 1.64D-13
 IDIUse=1 WtCom= 1.00D+00 WtEn= 0.00D+00
 Coeff-Com: -0.980D-08 0.476D-07-0.307D-06-0.116D-06 0.400D-05-0.271D-05
 Coeff-Com: -0.822D-04 0.936D-03-0.682D-02 0.541D-01-0.344D+00 0.130D+01
 Coeff:     -0.980D-08 0.476D-07-0.307D-06-0.116D-06 0.400D-05-0.271D-05
 Coeff:     -0.822D-04 0.936D-03-0.682D-02 0.541D-01-0.344D+00 0.130D+01
 Gap=     0.270 Goal=   None    Shift=    0.000
 RMSDP=5.98D-09 MaxDP=3.02D-08 DE= 3.41D-13 OVMax= 6.68D-08

 Cycle  13  Pass 2  IDiag  1:
 SCF Done:  E(RPM7) =  0.359960299477E-01 A.U. after   13 cycles
            NFock= 12  Conv=0.60D-08     -V/T= 1.0006
 KE=-6.223097933299D+01 PE=-2.579295887080D+02 EE= 1.471789537071D+02
 Leave Link  502 at Sat Dec 13 14:59:54 2025, MaxMem=   536870912 cpu:               0.0 elap:               0.7
 (Enter D:\G16W\l801.exe)
 Range of M.O.s used for correlation:     1    41
 NBasis=    41 NAE=    20 NBE=    20 NFC=     0 NFV=     0
 NROrb=     41 NOA=    20 NOB=    20 NVA=    21 NVB=    21
 Leave Link  801 at Sat Dec 13 14:59:55 2025, MaxMem=   536870912 cpu:               1.0 elap:               0.1
 (Enter D:\G16W\l1101.exe)
 Using compressed storage, NAtomX=    18.
 Will process     19 centers per pass.
 R6Disp: Adding PM7 dispersion energy 1st derivatives to the gradient.
 Leave Link 1101 at Sat Dec 13 14:59:55 2025, MaxMem=   536870912 cpu:               0.0 elap:               0.2
 (Enter D:\G16W\l1102.exe)
 Symmetrizing basis deriv contribution to polar:
 IMax=3 JMax=2 DiffMx= 0.00D+00
 Leave Link 1102 at Sat Dec 13 14:59:55 2025, MaxMem=   536870912 cpu:               0.0 elap:               0.1
 (Enter D:\G16W\l1110.exe)
 Forming Gx(P) for the SCF density, NAtomX=    18.
 Integral derivatives from FoFJK, PRISM(SPDF).
 Do as many integral derivatives as possible in FoFJK.
 G2DrvN: MDV=     536810604.
 G2DrvN: will do    19 centers at a time, making    1 passes.
 Calling FoFCou, ICntrl=  3107 FMM=F I1Cent=   0 AccDes= 0.00D+00.
 FoFJK:  IHMeth=43 ICntrl=    3107 DoSepK=F KAlg= 0 I1Cent=           0 FoldK=F
 IRaf=         0 NMat=       1 IRICut=       1 DoRegI=T DoRafI=F ISym2E= 0 IDoP0=3 IntGTp=3.
 FoFCou: FMM=F IPFlag=           0 FMFlag=      100000 FMFlg1=           0
         NFxFlg=           0 DoJE=F BraDBF=F KetDBF=F FulRan=T
         wScrn=  0.000000 ICntrl=      3107 IOpCl=  0 I1Cent=           0 NGrid=           0
         NMat0=    1 NMatS0=      1 NMatT0=    0 NMatD0=    1 NMtDS0=    0 NMtDT0=    0
 Symmetry not used in FoFCou.
 End of G2Drv F.D. properties file   721 does not exist.
 End of G2Drv F.D. properties file   722 does not exist.
 End of G2Drv F.D. properties file   788 does not exist.
 Leave Link 1110 at Sat Dec 13 14:59:55 2025, MaxMem=   536870912 cpu:               0.0 elap:               0.2
 (Enter D:\G16W\l1002.exe)
 Minotr:  Closed shell wavefunction.
          IDoAtm=111111111111111111
          Direct CPHF calculation.
          Differentiating once with respect to nuclear coordinates.
          Electric field/nuclear overlap derivatives assumed to be zero.
          Requested convergence is 1.0D-08 RMS, and 1.0D-07 maximum.
          NewPWx=T KeepS1=F KeepF1=F KeepIn=T MapXYZ=F SortEE=F KeepMc=T.
 Keep J ints in memory in canonical form, NReq=1854628.
 FoFCou: FMM=F IPFlag=           0 FMFlag=           0 FMFlg1=           0
         NFxFlg=           0 DoJE=F BraDBF=F KetDBF=F FulRan=T
         wScrn=  0.000000 ICntrl=       600 IOpCl=  2 I1Cent=           0 NGrid=           0
         NMat0=    1 NMatS0=    107 NMatT0=    0 NMatD0=    1 NMtDS0=    0 NMtDT0=    0
 Symmetry not used in FoFCou.
 Two-electron integral symmetry not used.
          MDV=     536870912 using IRadAn=       1.
          Solving linear equations separately, MaxMat=       0.
          There are    57 degrees of freedom in the 1st order CPHF.  IDoFFX=5 NUNeed=    57.
 LinEq1:  Iter=  0 NonCon=    54 RMS=1.80D-02 Max=2.25D-01 NDo=    54
 AX will form    57 AO Fock derivatives at one time.
 LinEq1:  Iter=  1 NonCon=    54 RMS=2.03D-03 Max=1.41D-02 NDo=    57
 LinEq1:  Iter=  2 NonCon=    54 RMS=3.10D-04 Max=3.34D-03 NDo=    57
 LinEq1:  Iter=  3 NonCon=    54 RMS=5.11D-05 Max=3.84D-04 NDo=    57
 LinEq1:  Iter=  4 NonCon=    54 RMS=1.25D-05 Max=8.49D-05 NDo=    57
 LinEq1:  Iter=  5 NonCon=    54 RMS=1.75D-06 Max=1.19D-05 NDo=    57
 LinEq1:  Iter=  6 NonCon=    54 RMS=2.43D-07 Max=2.26D-06 NDo=    57
 LinEq1:  Iter=  7 NonCon=    17 RMS=2.93D-08 Max=2.30D-07 NDo=    57
 LinEq1:  Iter=  8 NonCon=     0 RMS=4.84D-09 Max=4.54D-08 NDo=    57
 Linear equations converged to 1.000D-08 1.000D-07 after     8 iterations.
 End of Minotr F.D. properties file   721 does not exist.
 End of Minotr F.D. properties file   722 does not exist.
 End of Minotr F.D. properties file   788 does not exist.
 Leave Link 1002 at Sat Dec 13 14:59:56 2025, MaxMem=   536870912 cpu:               1.0 elap:               0.3
 (Enter D:\G16W\l601.exe)
 Copying SCF densities to generalized density rwf, IOpCl= 0 IROHF=0.

 **********************************************************************

            Population analysis using the SCF density.

 **********************************************************************

 Alpha  occ. eigenvalues --   -1.37636  -0.96655  -0.96655  -0.94399  -0.86619
 Alpha  occ. eigenvalues --   -0.71012  -0.66059  -0.66059  -0.64004  -0.56716
 Alpha  occ. eigenvalues --   -0.56716  -0.54301  -0.54301  -0.52851  -0.52281
 Alpha  occ. eigenvalues --   -0.52281  -0.45812  -0.28715  -0.28532  -0.28532
 Alpha virt. eigenvalues --   -0.01895   0.04783   0.09654   0.09654   0.14641
 Alpha virt. eigenvalues --    0.14641   0.14867   0.15146   0.15304   0.15304
 Alpha virt. eigenvalues --    0.17560   0.18391   0.18391   0.18757   0.18757
 Alpha virt. eigenvalues --    0.18868   4.82933   4.82933   4.83097   4.83897
 Alpha virt. eigenvalues --    4.83897
          Condensed to atoms (all electrons):
               1          2          3          4          5          6
     1  C    4.313881   0.000000   0.000000   0.000000   0.000000   0.000000
     2  N    0.000000   5.225557   0.000000   0.000000   0.000000   0.000000
     3  C    0.000000   0.000000   4.313882   0.000000   0.000000   0.000000
     4  C    0.000000   0.000000   0.000000   4.313881   0.000000   0.000000
     5  H    0.000000   0.000000   0.000000   0.000000   0.830808   0.000000
     6  H    0.000000   0.000000   0.000000   0.000000   0.000000   0.851754
     7  H    0.000000   0.000000   0.000000   0.000000   0.000000   0.000000
     8  H    0.000000   0.000000   0.000000   0.000000   0.000000   0.000000
     9  H    0.000000   0.000000   0.000000   0.000000   0.000000   0.000000
    10  H    0.000000   0.000000   0.000000   0.000000   0.000000   0.000000
    11  H    0.000000   0.000000   0.000000   0.000000   0.000000   0.000000
    12  H    0.000000   0.000000   0.000000   0.000000   0.000000   0.000000
    13  H    0.000000   0.000000   0.000000   0.000000   0.000000   0.000000
    14  C    0.000000   0.000000   0.000000   0.000000   0.000000   0.000000
    15  I    0.000000   0.000000   0.000000   0.000000   0.000000   0.000000
    16  H    0.000000   0.000000   0.000000   0.000000   0.000000   0.000000
    17  H    0.000000   0.000000   0.000000   0.000000   0.000000   0.000000
    18  H    0.000000   0.000000   0.000000   0.000000   0.000000   0.000000
               7          8          9         10         11         12
     1  C    0.000000   0.000000   0.000000   0.000000   0.000000   0.000000
     2  N    0.000000   0.000000   0.000000   0.000000   0.000000   0.000000
     3  C    0.000000   0.000000   0.000000   0.000000   0.000000   0.000000
     4  C    0.000000   0.000000   0.000000   0.000000   0.000000   0.000000
     5  H    0.000000   0.000000   0.000000   0.000000   0.000000   0.000000
     6  H    0.000000   0.000000   0.000000   0.000000   0.000000   0.000000
     7  H    0.830808   0.000000   0.000000   0.000000   0.000000   0.000000
     8  H    0.000000   0.830808   0.000000   0.000000   0.000000   0.000000
     9  H    0.000000   0.000000   0.830808   0.000000   0.000000   0.000000
    10  H    0.000000   0.000000   0.000000   0.851754   0.000000   0.000000
    11  H    0.000000   0.000000   0.000000   0.000000   0.851754   0.000000
    12  H    0.000000   0.000000   0.000000   0.000000   0.000000   0.830808
    13  H    0.000000   0.000000   0.000000   0.000000   0.000000   0.000000
    14  C    0.000000   0.000000   0.000000   0.000000   0.000000   0.000000
    15  I    0.000000   0.000000   0.000000   0.000000   0.000000   0.000000
    16  H    0.000000   0.000000   0.000000   0.000000   0.000000   0.000000
    17  H    0.000000   0.000000   0.000000   0.000000   0.000000   0.000000
    18  H    0.000000   0.000000   0.000000   0.000000   0.000000   0.000000
              13         14         15         16         17         18
     1  C    0.000000   0.000000   0.000000   0.000000   0.000000   0.000000
     2  N    0.000000   0.000000   0.000000   0.000000   0.000000   0.000000
     3  C    0.000000   0.000000   0.000000   0.000000   0.000000   0.000000
     4  C    0.000000   0.000000   0.000000   0.000000   0.000000   0.000000
     5  H    0.000000   0.000000   0.000000   0.000000   0.000000   0.000000
     6  H    0.000000   0.000000   0.000000   0.000000   0.000000   0.000000
     7  H    0.000000   0.000000   0.000000   0.000000   0.000000   0.000000
     8  H    0.000000   0.000000   0.000000   0.000000   0.000000   0.000000
     9  H    0.000000   0.000000   0.000000   0.000000   0.000000   0.000000
    10  H    0.000000   0.000000   0.000000   0.000000   0.000000   0.000000
    11  H    0.000000   0.000000   0.000000   0.000000   0.000000   0.000000
    12  H    0.000000   0.000000   0.000000   0.000000   0.000000   0.000000
    13  H    0.830808   0.000000   0.000000   0.000000   0.000000   0.000000
    14  C    0.000000   4.038352   0.000000   0.000000   0.000000   0.000000
    15  I    0.000000   0.000000   7.707966   0.000000   0.000000   0.000000
    16  H    0.000000   0.000000   0.000000   0.848790   0.000000   0.000000
    17  H    0.000000   0.000000   0.000000   0.000000   0.848790   0.000000
    18  H    0.000000   0.000000   0.000000   0.000000   0.000000   0.848790
 Mulliken charges:
               1
     1  C   -0.313881
     2  N   -0.225557
     3  C   -0.313882
     4  C   -0.313881
     5  H    0.169192
     6  H    0.148246
     7  H    0.169192
     8  H    0.169192
     9  H    0.169192
    10  H    0.148246
    11  H    0.148246
    12  H    0.169192
    13  H    0.169192
    14  C   -0.038352
    15  I   -0.707966
    16  H    0.151210
    17  H    0.151210
    18  H    0.151210
 Sum of Mulliken charges =   0.00000
 Mulliken charges with hydrogens summed into heavy atoms:
               1
     1  C    0.172748
     2  N   -0.225557
     3  C    0.172748
     4  C    0.172748
    14  C    0.415278
    15  I   -0.707966
 APT charges:
               1
     1  C   -0.313881
     2  N   -0.225557
     3  C   -0.313882
     4  C   -0.313881
     5  H    0.169192
     6  H    0.148246
     7  H    0.169192
     8  H    0.169192
     9  H    0.169192
    10  H    0.148246
    11  H    0.148246
    12  H    0.169192
    13  H    0.169192
    14  C   -0.038352
    15  I   -0.707966
    16  H    0.151210
    17  H    0.151210
    18  H    0.151210
 Sum of APT charges =   0.00000
 APT charges with hydrogens summed into heavy atoms:
               1
     1  C    0.172748
     2  N   -0.225557
     3  C    0.172748
     4  C    0.172748
    14  C    0.415278
    15  I   -0.707966
 Charge=              0.0000 electrons
 Dipole moment (field-independent basis, Debye):
    X=             13.1433    Y=             -1.1156    Z=              3.9091  Tot=             13.7576
 N-N= 1.730176103639D+02 E-N=-2.579295886304D+02  KE=-6.223097933299D+01
  Exact polarizability:   0.000   0.000   0.000   0.000   0.000   0.000
 Approx polarizability:  87.558  -5.210  26.982  18.257  -1.566  31.101
 Leave Link  601 at Sat Dec 13 14:59:56 2025, MaxMem=   536870912 cpu:               0.0 elap:               0.1
 (Enter D:\G16W\l701.exe)
 ... and contract with generalized density number  0.
 Compute integral second derivatives.
 R6Disp: Adding PM7 dispersion energy 2nd derivatives to the Hessian.
 Leave Link  701 at Sat Dec 13 14:59:56 2025, MaxMem=   536870912 cpu:               0.0 elap:               0.2
 (Enter D:\G16W\l702.exe)
 L702 exits ... SP integral derivatives will be done elsewhere.
 Leave Link  702 at Sat Dec 13 14:59:56 2025, MaxMem=   536870912 cpu:               0.0 elap:               0.1
 (Enter D:\G16W\l703.exe)
 Integral derivatives from FoFJK, PRISM(SPDF).
 Compute integral second derivatives, UseDBF=F ICtDFT=           0.
 Calling FoFJK, ICntrl=    100147 FMM=F ISym2X=0 I1Cent= 0 IOpClX= 0 NMat=1 NMatS=1 NMatT=0.
 FoFJK:  IHMeth=43 ICntrl=  100147 DoSepK=F KAlg= 0 I1Cent=           0 FoldK=F
 IRaf=         0 NMat=       1 IRICut=       1 DoRegI=T DoRafI=F ISym2E= 0 IDoP0=3 IntGTp=3.
 FoFCou: FMM=F IPFlag=           0 FMFlag=      100000 FMFlg1=         800
         NFxFlg=           0 DoJE=F BraDBF=F KetDBF=F FulRan=T
         wScrn=  0.000000 ICntrl=    100147 IOpCl=  0 I1Cent=           0 NGrid=           0
         NMat0=    1 NMatS0=      1 NMatT0=    0 NMatD0=    1 NMtDS0=    0 NMtDT0=    0
 Symmetry not used in FoFCou.
 Leave Link  703 at Sat Dec 13 14:59:56 2025, MaxMem=   536870912 cpu:               0.0 elap:               0.1
 (Enter D:\G16W\l716.exe)
 Dipole        = 5.17095961D+00-4.38895942D-01 1.53796805D+00
 Polarizability= 0.00000000D+00 0.00000000D+00 0.00000000D+00
                 0.00000000D+00 0.00000000D+00 0.00000000D+00
 -------------------------------------------------------------------
 Center     Atomic                   Forces (Hartrees/Bohr)
 Number     Number              X              Y              Z
 -------------------------------------------------------------------
      1        6          -0.000000017   -0.000000511   -0.000000071
      2        7          -0.000000090   -0.000000286   -0.000000054
      3        6           0.000000574    0.000000028   -0.000000021
      4        6          -0.000000006    0.000000292    0.000000152
      5        1           0.000000061    0.000000068    0.000000129
      6        1           0.000000192    0.000000060   -0.000000056
      7        1          -0.000000114    0.000000359    0.000000030
      8        1          -0.000000082    0.000000135    0.000000024
      9        1          -0.000000100   -0.000000115    0.000000093
     10        1          -0.000000225   -0.000000002    0.000000003
     11        1          -0.000000109   -0.000000082   -0.000000051
     12        1           0.000000122    0.000000047   -0.000000068
     13        1           0.000000032   -0.000000031    0.000000015
     14        6          -0.000000531    0.000000155   -0.000000504
     15       53          -0.000001304    0.000000095   -0.000000394
     16        1           0.000000574    0.000000337    0.000000330
     17        1           0.000000446   -0.000000381    0.000000459
     18        1           0.000000576   -0.000000169   -0.000000014
 -------------------------------------------------------------------
 Cartesian Forces:  Max     0.000001304 RMS     0.000000306
 Z-matrix is all fixed cartesians, so copy forces.
 Leave Link  716 at Sat Dec 13 14:59:57 2025, MaxMem=   536870912 cpu:               1.0 elap:               0.2
 (Enter D:\G16W\l123.exe)
 IRC-IRC-IRC-IRC-IRC-IRC-IRC-IRC-IRC-IRC-IRC-IRC-IRC-IRC-IRC-IRC-IRC-IRC
          ******** Start new reaction path calculation ********
 Current Structure is TS -> form Hessian eigenvectors.
                            Diagonalizing Hessian.
 Supplied step size of   0.0500 bohr.
    Integration on MW PES will use step size of   0.1665 sqrt(amu)*bohr.
 Point Number:   0          Path Number:   1
 Calculating another point on the path.
 Point Number  1 in FORWARD path direction.
 Using LQA Reaction Path Following.
 IRC-IRC-IRC-IRC-IRC-IRC-IRC-IRC-IRC-IRC-IRC-IRC-IRC-IRC-IRC-IRC-IRC-IRC
 Leave Link  123 at Sat Dec 13 14:59:57 2025, MaxMem=   536870912 cpu:               0.0 elap:               0.1
 (Enter D:\G16W\l202.exe)
                          Input orientation:                          
 ---------------------------------------------------------------------
 Center     Atomic      Atomic             Coordinates (Angstroms)
 Number     Number       Type             X           Y           Z
 ---------------------------------------------------------------------
      1          6           0        3.589126    0.707059    0.018692
      2          7           0        2.777822   -0.236101    0.830165
      3          6           0        2.864513    0.107137    2.272706
      4          6           0        3.216655   -1.636124    0.598613
      5          1           0        3.484791    0.470541   -1.055058
      6          1           0        4.660678    0.682282    0.269890
      7          1           0        3.228237    1.740610    0.164618
      8          1           0        2.496426    1.134730    2.441019
      9          1           0        2.225059   -0.572418    2.863526
     10          1           0        3.888598    0.043062    2.671557
     11          1           0        4.263808   -1.814394    0.887801
     12          1           0        2.580697   -2.332993    1.172806
     13          1           0        3.108622   -1.895914   -0.469377
     14          6           0        0.951072   -0.080837    0.284233
     15         53           0       -1.569937    0.133437   -0.469183
     16          1           0        0.898212    0.968799    0.546606
     17          1           0        0.612545   -0.828308    0.991379
     18          1           0        1.168288   -0.368197   -0.737340
 ---------------------------------------------------------------------
                    Distance matrix (angstroms):
                    1          2          3          4          5
     1  C    0.000000
     2  N    1.485346   0.000000
     3  C    2.442448   1.485346   0.000000
     4  C    2.442448   1.485347   2.442448   0.000000
     5  H    1.104430   2.133826   3.404530   2.691573   0.000000
     6  H    1.100880   2.168520   2.751049   2.751049   1.784105
     7  H    1.104429   2.133826   2.691573   3.404530   1.779468
     8  H    2.691573   2.133826   1.104430   3.404530   3.693315
     9  H    3.404530   2.133826   1.104429   2.691573   4.246174
    10  H    2.751049   2.168521   1.100881   2.751049   3.772726
    11  H    2.751049   2.168521   2.751049   1.100881   3.098790
    12  H    3.404530   2.133827   2.691573   1.104430   3.693314
    13  H    2.691573   2.133827   3.404530   1.104430   2.466705
    14  C    2.765975   1.912894   2.765974   2.765975   2.918467
    15  I    5.213731   4.552787   5.213731   5.213732   5.099722
    16  H    2.754672   2.250583   2.754672   3.487622   3.082853
    17  H    3.487622   2.250583   2.754671   2.754673   3.758286
    18  H    2.754672   2.250583   3.487621   2.754672   2.484073
                    6          7          8          9         10
     6  H    0.000000
     7  H    1.784104   0.000000
     8  H    3.098789   2.466706   0.000000
     9  H    3.772725   3.693314   1.779468   0.000000
    10  H    2.602443   3.098788   1.784105   1.784105   0.000000
    11  H    2.602444   3.772725   3.772725   3.098788   2.602444
    12  H    3.772726   4.246174   3.693314   2.466705   3.098790
    13  H    3.098788   3.693314   4.246174   3.693314   3.772726
    14  C    3.787312   2.918468   2.918467   2.918467   3.787312
    15  I    6.298255   5.099723   5.099723   5.099723   6.298255
    16  H    3.783492   2.484074   2.484074   3.082854   3.783492
    17  H    4.380617   3.758286   3.082853   2.484073   3.783492
    18  H    3.783492   3.082854   3.758286   3.758286   4.380617
                   11         12         13         14         15
    11  H    0.000000
    12  H    1.784106   0.000000
    13  H    1.784105   1.779469   0.000000
    14  C    3.787312   2.918466   2.918468   0.000000
    15  I    6.298256   5.099722   5.099723   2.639893   0.000000
    16  H    4.380618   3.758286   3.758286   1.083222   2.796679
    17  H    3.783492   2.484073   3.082855   1.083222   2.796680
    18  H    3.783492   3.082853   2.484073   1.083222   2.796680
                   16         17         18
    16  H    0.000000
    17  H    1.873238   0.000000
    18  H    1.873238   1.873238   0.000000
 Symmetry turned off by external request.
 This structure is nearly, but not quite of a higher symmetry.
 Consider Symm=Loose if the higher symmetry is desired.
 Stoichiometry    C4H12IN
 Framework group  C1[X(C4H12IN)]
 Deg. of freedom    48
 Full point group                 C1      NOp   1
 Rotational constants (GHZ):           4.6177198           0.4788633           0.4788633
 Leave Link  202 at Sat Dec 13 14:59:57 2025, MaxMem=   536870912 cpu:               0.0 elap:               0.1
 (Enter D:\G16W\l301.exe)
 Standard basis: VSTO-6G (5D, 7F)
 Ernie: Thresh=  0.10000D-02 Tol=  0.10000D-05 Strict=F.
 EHB=         0.000000000 Number of Hydrogen Bonds=     0
  NNHCO=     0 NNPyr=     0 NCTC=     0               EPep=         0.000000000
    EC=       130.732400595  ECS=         2.649157036   EG=         0.471417345
   EHC=         0.000433844  EAt=       -36.754028298  AtH=         2.306420954
 EPDDG=         0.000000000  ECC=       133.853408821 EAtT=        39.060449251
  EHyb=         0.000000000
    41 basis functions,   252 primitive gaussians,    42 cartesian basis functions
    20 alpha electrons       20 beta electrons
       nuclear repulsion energy       172.9138580721 Hartrees.
 IExCor=    0 DFT=F Ex=HF Corr=None ExCW=0 ScaHFX=  1.000000
 ScaDFX=  1.000000  1.000000  1.000000  1.000000 ScalE2=  1.000000  1.000000
 IRadAn=      5 IRanWt=     -1 IRanGd=            0 ICorTp=0 IEmpDi=251
 Integral buffers will be    131072 words long.
 Regular integral format.
 Two-electron integral symmetry is turned off.
 R6Disp:  PM7 Dispersion energy=       -0.0029603059 Hartrees.
 Nuclear repulsion after empirical dispersion term =      172.9108977662 Hartrees.
 Leave Link  301 at Sat Dec 13 14:59:57 2025, MaxMem=   536870912 cpu:               0.0 elap:               0.1
 (Enter D:\G16W\l302.exe)
 Do NDO integrals.
 NPDir=0 NMtPBC=     1 NCelOv=     1 NCel=       1 NClECP=     1 NCelD=      1
         NCelK=      1 NCelE2=     1 NClLst=     1 CellRange=     0.0.
 One-electron integrals computed using PRISM.
 NBasis=    41 RedAO= F EigKep=  0.00D+00  NBF=    41
 NBsUse=    41 1.00D-04 EigRej=  0.00D+00 NBFU=    41
 Leave Link  302 at Sat Dec 13 14:59:57 2025, MaxMem=   536870912 cpu:               0.0 elap:               0.2
 (Enter D:\G16W\l303.exe)
 DipDrv:  MaxL=1.
 Leave Link  303 at Sat Dec 13 14:59:57 2025, MaxMem=   536870912 cpu:               0.0 elap:               0.1
 (Enter D:\G16W\l401.exe)
 Initial guess from the checkpoint file:  ".\Gau-16928.chk"
 B after Tr=     0.641370   -0.054513    0.191676
         Rot=    1.000000    0.000000    0.000000    0.000000 Ang=   0.00 deg.
 Guess basis will be translated and rotated to current coordinates.
 JPrj=0 DoOrth=T DoCkMO=T.
 Leave Link  401 at Sat Dec 13 14:59:58 2025, MaxMem=   536870912 cpu:               1.0 elap:               0.2
 (Enter D:\G16W\l502.exe)
 Keep J ints in memory in canonical form, NReq=1852917.
 FoFCou: FMM=F IPFlag=           0 FMFlag=           0 FMFlg1=           0
         NFxFlg=           0 DoJE=F BraDBF=F KetDBF=F FulRan=T
         wScrn=  0.000000 ICntrl=       600 IOpCl=  2 I1Cent=           0 NGrid=           0
         NMat0=    1 NMatS0=    107 NMatT0=    0 NMatD0=    1 NMtDS0=    0 NMtDT0=    0
 Symmetry not used in FoFCou.
 Two-electron integral symmetry not used.
 Closed shell SCF:
 Using DIIS extrapolation, IDIIS=  1040.
 Overlap will be assumed to be unity.
 NGot=   536870912 LenX=   536801538 LenY=   536799333
 Requested convergence on RMS density matrix=1.00D-08 within 128 cycles.
 Requested convergence on MAX density matrix=1.00D-06.
 Requested convergence on             energy=1.00D-06.
 No special actions if energy rises.

 Cycle   1  Pass 1  IDiag  1:
 E= 0.364695149427519E-01
 DIIS: error= 2.70D-03 at cycle   1 NSaved=   1.
 NSaved= 1 IEnMin= 1 EnMin= 0.364695149427519E-01 IErMin= 1 ErrMin= 2.70D-03
 ErrMax= 2.70D-03  0.00D+00 EMaxC= 1.00D-01 BMatC= 1.28D-04 BMatP= 1.28D-04
 IDIUse=3 WtCom= 9.73D-01 WtEn= 2.70D-02
 Coeff-Com:  0.100D+01
 Coeff-En:   0.100D+01
 Coeff:      0.100D+01
 GapD=    2.000 DampG=2.000 DampE=1.000 DampFc=2.0000 IDamp=-1.
 RMSDP=6.73D-04 MaxDP=8.27D-03              OVMax= 0.00D+00

 Cycle   2  Pass 1  IDiag  3:
 E= 0.359448398124300E-01 Delta-E=       -0.000524675130 Rises=F Damp=F
 DIIS: error= 1.04D-03 at cycle   2 NSaved=   2.
 NSaved= 2 IEnMin= 2 EnMin= 0.359448398124300E-01 IErMin= 2 ErrMin= 1.04D-03
 ErrMax= 1.04D-03  0.00D+00 EMaxC= 1.00D-01 BMatC= 1.98D-05 BMatP= 1.28D-04
 IDIUse=3 WtCom= 9.90D-01 WtEn= 1.04D-02
 Coeff-Com: -0.433D+00 0.143D+01
 Coeff-En:   0.000D+00 0.100D+01
 Coeff:     -0.428D+00 0.143D+01
 Gap=     0.270 Goal=   None    Shift=    0.000
 RMSDP=4.29D-04 MaxDP=5.45D-03 DE=-5.25D-04 OVMax= 7.90D-03

 Cycle   3  Pass 1  IDiag  3:
 E= 0.358237209589447E-01 Delta-E=       -0.000121118853 Rises=F Damp=F
 DIIS: error= 1.76D-04 at cycle   3 NSaved=   3.
 NSaved= 3 IEnMin= 3 EnMin= 0.358237209589447E-01 IErMin= 3 ErrMin= 1.76D-04
 ErrMax= 1.76D-04  0.00D+00 EMaxC= 1.00D-01 BMatC= 1.34D-06 BMatP= 1.98D-05
 IDIUse=3 WtCom= 9.98D-01 WtEn= 1.76D-03
 Coeff-Com:  0.568D-01-0.363D+00 0.131D+01
 Coeff-En:   0.000D+00 0.000D+00 0.100D+01
 Coeff:      0.567D-01-0.362D+00 0.131D+01
 Gap=     0.271 Goal=   None    Shift=    0.000
 RMSDP=1.40D-04 MaxDP=1.89D-03 DE=-1.21D-04 OVMax= 2.81D-03

 Cycle   4  Pass 1  IDiag  3:
 E= 0.358128618876208E-01 Delta-E=       -0.000010859071 Rises=F Damp=F
 DIIS: error= 6.36D-05 at cycle   4 NSaved=   4.
 NSaved= 4 IEnMin= 4 EnMin= 0.358128618876208E-01 IErMin= 4 ErrMin= 6.36D-05
 ErrMax= 6.36D-05  0.00D+00 EMaxC= 1.00D-01 BMatC= 1.22D-07 BMatP= 1.34D-06
 IDIUse=1 WtCom= 1.00D+00 WtEn= 0.00D+00
 Coeff-Com:  0.176D-01-0.277D-01-0.329D+00 0.134D+01
 Coeff:      0.176D-01-0.277D-01-0.329D+00 0.134D+01
 Gap=     0.271 Goal=   None    Shift=    0.000
 RMSDP=4.99D-05 MaxDP=7.12D-04 DE=-1.09D-05 OVMax= 1.11D-03

 Cycle   5  Pass 1  IDiag  3:
 E= 0.358118161217078E-01 Delta-E=       -0.000001045766 Rises=F Damp=F
 DIIS: error= 1.26D-05 at cycle   5 NSaved=   5.
 NSaved= 5 IEnMin= 5 EnMin= 0.358118161217078E-01 IErMin= 5 ErrMin= 1.26D-05
 ErrMax= 1.26D-05  0.00D+00 EMaxC= 1.00D-01 BMatC= 7.60D-09 BMatP= 1.22D-07
 IDIUse=1 WtCom= 1.00D+00 WtEn= 0.00D+00
 Coeff-Com: -0.103D-01 0.397D-01 0.481D-02-0.446D+00 0.141D+01
 Coeff:     -0.103D-01 0.397D-01 0.481D-02-0.446D+00 0.141D+01
 Gap=     0.271 Goal=   None    Shift=    0.000
 RMSDP=1.12D-05 MaxDP=1.60D-04 DE=-1.05D-06 OVMax= 2.58D-04

 Cycle   6  Pass 1  IDiag  3:
 E= 0.358117647112692E-01 Delta-E=       -0.000000051410 Rises=F Damp=F
 DIIS: error= 2.33D-06 at cycle   6 NSaved=   6.
 NSaved= 6 IEnMin= 6 EnMin= 0.358117647112692E-01 IErMin= 6 ErrMin= 2.33D-06
 ErrMax= 2.33D-06  0.00D+00 EMaxC= 1.00D-01 BMatC= 3.76D-10 BMatP= 7.60D-09
 IDIUse=1 WtCom= 1.00D+00 WtEn= 0.00D+00
 Coeff-Com:  0.426D-02-0.182D-01 0.152D-01 0.144D+00-0.641D+00 0.150D+01
 Coeff:      0.426D-02-0.182D-01 0.152D-01 0.144D+00-0.641D+00 0.150D+01
 Gap=     0.271 Goal=   None    Shift=    0.000
 RMSDP=1.65D-06 MaxDP=1.41D-05 DE=-5.14D-08 OVMax= 1.58D-05

 Cycle   7  Pass 1  IDiag  3:
 E= 0.358117626592787E-01 Delta-E=       -0.000000002052 Rises=F Damp=F
 DIIS: error= 7.20D-07 at cycle   7 NSaved=   7.
 NSaved= 7 IEnMin= 7 EnMin= 0.358117626592787E-01 IErMin= 7 ErrMin= 7.20D-07
 ErrMax= 7.20D-07  0.00D+00 EMaxC= 1.00D-01 BMatC= 2.40D-11 BMatP= 3.76D-10
 IDIUse=1 WtCom= 1.00D+00 WtEn= 0.00D+00
 Coeff-Com: -0.785D-03 0.354D-02-0.485D-02-0.202D-01 0.125D+00-0.528D+00
 Coeff-Com:  0.143D+01
 Coeff:     -0.785D-03 0.354D-02-0.485D-02-0.202D-01 0.125D+00-0.528D+00
 Coeff:      0.143D+01
 Gap=     0.271 Goal=   None    Shift=    0.000
 RMSDP=4.43D-07 MaxDP=4.27D-06 DE=-2.05D-09 OVMax= 3.46D-06

 Cycle   8  Pass 1  IDiag  3:
 E= 0.358117625193870E-01 Delta-E=       -0.000000000140 Rises=F Damp=F
 DIIS: error= 1.35D-07 at cycle   8 NSaved=   8.
 NSaved= 8 IEnMin= 8 EnMin= 0.358117625193870E-01 IErMin= 8 ErrMin= 1.35D-07
 ErrMax= 1.35D-07  0.00D+00 EMaxC= 1.00D-01 BMatC= 1.13D-12 BMatP= 2.40D-11
 IDIUse=1 WtCom= 1.00D+00 WtEn= 0.00D+00
 Coeff-Com:  0.134D-03-0.662D-03 0.106D-02 0.337D-02-0.266D-01 0.143D+00
 Coeff-Com: -0.546D+00 0.143D+01
 Coeff:      0.134D-03-0.662D-03 0.106D-02 0.337D-02-0.266D-01 0.143D+00
 Coeff:     -0.546D+00 0.143D+01
 Gap=     0.271 Goal=   None    Shift=    0.000
 RMSDP=1.06D-07 MaxDP=1.03D-06 DE=-1.40D-10 OVMax= 1.27D-06

 Cycle   9  Pass 1  IDiag  3:
 E= 0.358117625141858E-01 Delta-E=       -0.000000000005 Rises=F Damp=F
 DIIS: error= 3.47D-08 at cycle   9 NSaved=   9.
 NSaved= 9 IEnMin= 9 EnMin= 0.358117625141858E-01 IErMin= 9 ErrMin= 3.47D-08
 ErrMax= 3.47D-08  0.00D+00 EMaxC= 1.00D-01 BMatC= 6.90D-14 BMatP= 1.13D-12
 IDIUse=1 WtCom= 1.00D+00 WtEn= 0.00D+00
 Coeff-Com: -0.325D-05 0.356D-04-0.938D-04-0.696D-04 0.315D-02-0.306D-01
 Coeff-Com:  0.164D+00-0.652D+00 0.152D+01
 Coeff:     -0.325D-05 0.356D-04-0.938D-04-0.696D-04 0.315D-02-0.306D-01
 Coeff:      0.164D+00-0.652D+00 0.152D+01
 Gap=     0.271 Goal=   None    Shift=    0.000
 RMSDP=3.18D-08 MaxDP=4.61D-07 DE=-5.20D-12 OVMax= 5.38D-07

 Cycle  10  Pass 1  IDiag  3:
 E= 0.358117625116847E-01 Delta-E=       -0.000000000003 Rises=F Damp=F
 DIIS: error= 7.04D-09 at cycle  10 NSaved=  10.
 NSaved=10 IEnMin=10 EnMin= 0.358117625116847E-01 IErMin=10 ErrMin= 7.04D-09
 ErrMax= 7.04D-09  0.00D+00 EMaxC= 1.00D-01 BMatC= 1.92D-15 BMatP= 6.90D-14
 IDIUse=1 WtCom= 1.00D+00 WtEn= 0.00D+00
 Coeff-Com: -0.160D-05 0.188D-05 0.184D-04-0.910D-04-0.185D-03 0.435D-02
 Coeff-Com: -0.281D-01 0.132D+00-0.415D+00 0.131D+01
 Coeff:     -0.160D-05 0.188D-05 0.184D-04-0.910D-04-0.185D-03 0.435D-02
 Coeff:     -0.281D-01 0.132D+00-0.415D+00 0.131D+01
 Gap=     0.271 Goal=   None    Shift=    0.000
 RMSDP=4.37D-09 MaxDP=7.17D-08 DE=-2.50D-12 OVMax= 8.72D-08

 Cycle  11  Pass 2  IDiag  1:
 SCF Done:  E(RPM7) =  0.358117625117E-01 A.U. after   11 cycles
            NFock= 10  Conv=0.44D-08     -V/T= 1.0006
 KE=-6.220353239568D+01 PE=-2.578464973121D+02 EE= 1.471749437041D+02
 Leave Link  502 at Sat Dec 13 14:59:58 2025, MaxMem=   536870912 cpu:               0.0 elap:               0.6
 (Enter D:\G16W\l801.exe)
 Range of M.O.s used for correlation:     1    41
 NBasis=    41 NAE=    20 NBE=    20 NFC=     0 NFV=     0
 NROrb=     41 NOA=    20 NOB=    20 NVA=    21 NVB=    21
 Leave Link  801 at Sat Dec 13 14:59:58 2025, MaxMem=   536870912 cpu:               0.0 elap:               0.1
 (Enter D:\G16W\l1101.exe)
 Leave Link 1101 at Sat Dec 13 14:59:59 2025, MaxMem=   536870912 cpu:               1.0 elap:               0.1
 (Enter D:\G16W\l1102.exe)
 Symmetrizing basis deriv contribution to polar:
 IMax=3 JMax=2 DiffMx= 0.00D+00
 Leave Link 1102 at Sat Dec 13 14:59:59 2025, MaxMem=   536870912 cpu:               0.0 elap:               0.1
 (Enter D:\G16W\l1110.exe)
 Leave Link 1110 at Sat Dec 13 14:59:59 2025, MaxMem=   536870912 cpu:               0.0 elap:               0.1
 (Enter D:\G16W\l1002.exe)
 Minotr:  Closed shell wavefunction.
 Leave Link 1002 at Sat Dec 13 14:59:59 2025, MaxMem=   536870912 cpu:               0.0 elap:               0.1
 (Enter D:\G16W\l701.exe)
 ... and contract with generalized density number  0.
 Compute integral first derivatives.
 R6Disp: Adding PM7 dispersion energy 1st derivatives to the gradient.
 Leave Link  701 at Sat Dec 13 14:59:59 2025, MaxMem=   536870912 cpu:               0.0 elap:               0.2
 (Enter D:\G16W\l702.exe)
 L702 exits ... SP integral derivatives will be done elsewhere.
 Leave Link  702 at Sat Dec 13 14:59:59 2025, MaxMem=   536870912 cpu:               0.0 elap:               0.1
 (Enter D:\G16W\l703.exe)
 Integral derivatives from FoFJK, PRISM(SPDF).
 Compute integral first derivatives, UseDBF=F ICtDFT=           0.
 Calling FoFJK, ICntrl=      2147 FMM=F ISym2X=0 I1Cent= 0 IOpClX= 0 NMat=1 NMatS=1 NMatT=0.
 FoFJK:  IHMeth=43 ICntrl=    2147 DoSepK=F KAlg= 0 I1Cent=           0 FoldK=F
 IRaf=         0 NMat=       1 IRICut=       1 DoRegI=T DoRafI=F ISym2E= 0 IDoP0=3 IntGTp=3.
 FoFCou: FMM=F IPFlag=           0 FMFlag=      100000 FMFlg1=         800
         NFxFlg=           0 DoJE=F BraDBF=F KetDBF=F FulRan=T
         wScrn=  0.000000 ICntrl=      2147 IOpCl=  0 I1Cent=           0 NGrid=           0
         NMat0=    1 NMatS0=      1 NMatT0=    0 NMatD0=    1 NMtDS0=    0 NMtDT0=    0
 Symmetry not used in FoFCou.
 Leave Link  703 at Sat Dec 13 15:00:00 2025, MaxMem=   536870912 cpu:               1.0 elap:               0.1
 (Enter D:\G16W\l716.exe)
 Dipole        = 4.90719623D+00-4.16264681D-01 1.45853990D+00
 Polarizability= 0.00000000D+00 0.00000000D+00 0.00000000D+00
                 0.00000000D+00 0.00000000D+00 0.00000000D+00
 -------------------------------------------------------------------
 Center     Atomic                   Forces (Hartrees/Bohr)
 Number     Number              X              Y              Z
 -------------------------------------------------------------------
      1        6           0.000629855   -0.000046395    0.000180204
      2        7           0.001862571   -0.000158606    0.000556614
      3        6           0.000624966   -0.000050385    0.000197293
      4        6           0.000627050   -0.000063307    0.000184793
      5        1          -0.000008475   -0.000029381    0.000035145
      6        1           0.000063764    0.000063585   -0.000052835
      7        1          -0.000007435   -0.000035103    0.000029271
      8        1           0.000015065   -0.000016722   -0.000040628
      9        1           0.000016330   -0.000008894   -0.000042561
     10        1           0.000014001    0.000022663    0.000100731
     11        1           0.000038099   -0.000096137   -0.000013330
     12        1           0.000005633    0.000045327    0.000009193
     13        1           0.000003047    0.000043180    0.000017050
     14        6          -0.006954622    0.000591214   -0.002078732
     15       53           0.002944542   -0.000250288    0.000879987
     16        1           0.000041448   -0.000096107   -0.000012212
     17        1           0.000066733    0.000063035   -0.000051640
     18        1           0.000017427    0.000022321    0.000101655
 -------------------------------------------------------------------
 Cartesian Forces:  Max     0.006954622 RMS     0.001119876
 Z-matrix is all fixed cartesians, so copy forces.
 Leave Link  716 at Sat Dec 13 15:00:00 2025, MaxMem=   536870912 cpu:               0.0 elap:               0.1
 (Enter D:\G16W\l123.exe)
 IRC-IRC-IRC-IRC-IRC-IRC-IRC-IRC-IRC-IRC-IRC-IRC-IRC-IRC-IRC-IRC-IRC-IRC
 Pt  1 Step number   1 out of a maximum of  20
 Using modified Bulirsch-Stoer corrector integration.
   Using distance weighted interpolants to fit PES.
 PreDWI: IReCr0= 2 IReCr1= 1 IReCr2= 1 IReCr3= 1
 Modified Bulirsch-Stoer Extrapolation Cycles:
    EPS =    0.000010000000000
    Cycle     1 NS=    48
      PEZero:  N= 2 I= 1 D=  4.34D-04 Err=  1.18D-03
    Cycle     2 NS=    64 Truncation Error =  0.001175857
      PEZero:  N= 3 I= 2 D=  4.34D-04 Err=  7.84D-04
      PEZero:  N= 3 I= 1 D=  8.67D-04 Err=  4.85D-08
    Cycle     3 NS=    96 Truncation Error =  0.000000049
 BS completed in    3 cycles and     208 integration steps.
 Maximum DWI energy   std dev =  0.000000048 at pt     1
 Maximum DWI gradient std dev =  0.046982517 at pt     2
 SUMMARY OF CORRECTOR INTEGRATION:
   Predictor End Point Energy =     0.035812
   Old End Point Energy       =     0.035812
   Corrected End Point Energy =     0.035812
   Predictor End-Start Dist.  =     0.166511
   Old End-Start Dist.        =     0.166511
   New End-Start Dist.        =     0.166506
   New End-Old End Dist.      =     0.000960
 CORRECTOR INTEGRATION CONVERGENCE:
   Recorrection delta-x convergence threshold:    0.010000
   Delta-x Convergence Met
 Point Number:   1          Path Number:   1
                    CURRENT STRUCTURE
                Cartesian Coordinates (Ang):                
 ---------------------------------------------------------------------
 Center     Atomic                     Coordinates (Angstroms)
 Number     Number                        X           Y           Z
 ---------------------------------------------------------------------
      1          6                    3.589143    0.707046    0.018709
      2          7                    2.777761   -0.236096    0.830146
      3          6                    2.864538    0.107131    2.272697
      4          6                    3.216676   -1.636110    0.598624
      5          1                    3.484795    0.470532   -1.055036
      6          1                    4.660677    0.682247    0.269927
      7          1                    3.228241    1.740590    0.164629
      8          1                    2.496439    1.134716    2.441005
      9          1                    2.225074   -0.572417    2.863508
     10          1                    3.888622    0.043048    2.671515
     11          1                    4.263819   -1.814348    0.887817
     12          1                    2.580709   -2.332972    1.172807
     13          1                    3.108629   -1.895897   -0.469362
     14          6                    0.951059   -0.080836    0.284228
     15         53                   -1.569938    0.133437   -0.469183
     16          1                    0.898315    0.968596    0.546586
     17          1                    0.612701   -0.828177    0.991275
     18          1                    1.168340   -0.368152   -0.737122
 ---------------------------------------------------------------------
   CHANGE IN THE REACTION COORDINATE =    0.16651
   NET REACTION COORDINATE UP TO THIS POINT =    0.16651
  # OF POINTS ALONG THE PATH =   1
  # OF STEPS =   1

 Calculating another point on the path.
 Point Number  2 in FORWARD path direction.
 Using LQA Reaction Path Following.
   LQA: T_Est iteration completed in    3 iterations.
 IRC-IRC-IRC-IRC-IRC-IRC-IRC-IRC-IRC-IRC-IRC-IRC-IRC-IRC-IRC-IRC-IRC-IRC
 Leave Link  123 at Sat Dec 13 15:00:00 2025, MaxMem=   536870912 cpu:               0.0 elap:               0.2
 (Enter D:\G16W\l202.exe)
                          Input orientation:                          
 ---------------------------------------------------------------------
 Center     Atomic      Atomic             Coordinates (Angstroms)
 Number     Number       Type             X           Y           Z
 ---------------------------------------------------------------------
      1          6           0        3.591170    0.706900    0.019287
      2          7           0        2.783249   -0.236563    0.831787
      3          6           0        2.866546    0.106969    2.273334
      4          6           0        3.218693   -1.636317    0.599217
      5          1           0        3.484598    0.469398   -1.053798
      6          1           0        4.663312    0.684732    0.267894
      7          1           0        3.228064    1.739359    0.165775
      8          1           0        2.497100    1.134179    2.439545
      9          1           0        2.225756   -0.572824    2.862015
     10          1           0        3.889318    0.043927    2.675514
     11          1           0        4.265458   -1.818134    0.887336
     12          1           0        2.580984   -2.331364    1.173249
     13          1           0        3.108863   -1.894322   -0.468794
     14          6           0        0.928087   -0.078883    0.277363
     15         53           0       -1.569014    0.133359   -0.468907
     16          1           0        0.899101    0.969099    0.546972
     17          1           0        0.613331   -0.828654    0.991904
     18          1           0        1.169273   -0.368378   -0.737437
 ---------------------------------------------------------------------
                    Distance matrix (angstroms):
                    1          2          3          4          5
     1  C    0.000000
     2  N    1.484255   0.000000
     3  C    2.442483   1.484255   0.000000
     4  C    2.442483   1.484255   2.442483   0.000000
     5  H    1.104208   2.132065   3.403403   2.690205   0.000000
     6  H    1.100812   2.168270   2.753900   2.753900   1.783985
     7  H    1.104208   2.132065   2.690204   3.403403   1.779316
     8  H    2.690205   2.132065   1.104208   3.403403   3.690600
     9  H    3.403403   2.132065   1.104208   2.690204   4.243172
    10  H    2.753900   2.168270   1.100812   2.753900   3.775260
    11  H    2.753900   2.168270   2.753900   1.100812   3.100088
    12  H    3.403403   2.132065   2.690205   1.104208   3.690600
    13  H    2.690204   2.132065   3.403403   1.104208   2.463855
    14  C    2.788560   1.942647   2.788560   2.788560   2.933999
    15  I    5.214861   4.557504   5.214861   5.214861   5.098432
    16  H    2.755800   2.254941   2.755800   3.488758   3.081714
    17  H    3.488758   2.254941   2.755800   2.755801   3.756862
    18  H    2.755801   2.254941   3.488758   2.755800   2.482476
                    6          7          8          9         10
     6  H    0.000000
     7  H    1.783986   0.000000
     8  H    3.100088   2.463855   0.000000
     9  H    3.775260   3.690600   1.779316   0.000000
    10  H    2.608895   3.100087   1.783986   1.783985   0.000000
    11  H    2.608894   3.775260   3.775260   3.100087   2.608894
    12  H    3.775260   4.243172   3.690600   2.463855   3.100088
    13  H    3.100087   3.690600   4.243172   3.690600   3.775260
    14  C    3.812493   2.934000   2.933999   2.933999   3.812493
    15  I    6.299903   5.098433   5.098432   5.098432   6.299902
    16  H    3.785240   2.482475   2.482475   3.081715   3.785239
    17  H    4.383706   3.756862   3.081714   2.482475   3.785239
    18  H    3.785240   3.081716   3.756862   3.756862   4.383706
                   11         12         13         14         15
    11  H    0.000000
    12  H    1.783985   0.000000
    13  H    1.783985   1.779316   0.000000
    14  C    3.812493   2.933999   2.934000   0.000000
    15  I    6.299903   5.098432   5.098433   2.614857   0.000000
    16  H    4.383706   3.756862   3.756862   1.082496   2.796795
    17  H    3.785240   2.482475   3.081716   1.082496   2.796795
    18  H    3.785240   3.081714   2.482475   1.082495   2.796795
                   16         17         18
    16  H    0.000000
    17  H    1.873912   0.000000
    18  H    1.873912   1.873912   0.000000
 Symmetry turned off by external request.
 This structure is nearly, but not quite of a higher symmetry.
 Consider Symm=Loose if the higher symmetry is desired.
 Stoichiometry    C4H12IN
 Framework group  C1[X(C4H12IN)]
 Deg. of freedom    48
 Full point group                 C1      NOp   1
 Rotational constants (GHZ):           4.6178009           0.4788307           0.4788307
 Leave Link  202 at Sat Dec 13 15:00:00 2025, MaxMem=   536870912 cpu:               0.0 elap:               0.1
 (Enter D:\G16W\l301.exe)
 Standard basis: VSTO-6G (5D, 7F)
 Ernie: Thresh=  0.10000D-02 Tol=  0.10000D-05 Strict=F.
 EHB=         0.000000000 Number of Hydrogen Bonds=     0
  NNHCO=     0 NNPyr=     0 NCTC=     0               EPep=         0.000000000
    EC=       130.629924208  ECS=         2.651019537   EG=         0.469996747
   EHC=         0.000435937  EAt=       -36.754028298  AtH=         2.306420954
 EPDDG=         0.000000000  ECC=       133.751376430 EAtT=        39.060449251
  EHyb=         0.000000000
    41 basis functions,   252 primitive gaussians,    42 cartesian basis functions
    20 alpha electrons       20 beta electrons
       nuclear repulsion energy       172.8118256808 Hartrees.
 IExCor=    0 DFT=F Ex=HF Corr=None ExCW=0 ScaHFX=  1.000000
 ScaDFX=  1.000000  1.000000  1.000000  1.000000 ScalE2=  1.000000  1.000000
 IRadAn=      5 IRanWt=     -1 IRanGd=            0 ICorTp=0 IEmpDi=251
 Integral buffers will be    131072 words long.
 Regular integral format.
 Two-electron integral symmetry is turned off.
 R6Disp:  PM7 Dispersion energy=       -0.0029668575 Hartrees.
 Nuclear repulsion after empirical dispersion term =      172.8088588233 Hartrees.
 Leave Link  301 at Sat Dec 13 15:00:00 2025, MaxMem=   536870912 cpu:               0.0 elap:               0.1
 (Enter D:\G16W\l302.exe)
 Do NDO integrals.
 NPDir=0 NMtPBC=     1 NCelOv=     1 NCel=       1 NClECP=     1 NCelD=      1
         NCelK=      1 NCelE2=     1 NClLst=     1 CellRange=     0.0.
 One-electron integrals computed using PRISM.
 NBasis=    41 RedAO= F EigKep=  0.00D+00  NBF=    41
 NBsUse=    41 1.00D-04 EigRej=  0.00D+00 NBFU=    41
 Leave Link  302 at Sat Dec 13 15:00:00 2025, MaxMem=   536870912 cpu:               0.0 elap:               0.2
 (Enter D:\G16W\l303.exe)
 DipDrv:  MaxL=1.
 Leave Link  303 at Sat Dec 13 15:00:01 2025, MaxMem=   536870912 cpu:               1.0 elap:               0.1
 (Enter D:\G16W\l401.exe)
 Initial guess from the checkpoint file:  ".\Gau-16928.chk"
 B after Tr=    -0.000100    0.000009   -0.000030
         Rot=    1.000000    0.000000    0.000000    0.000000 Ang=   0.00 deg.
 Guess basis will be translated and rotated to current coordinates.
 JPrj=0 DoOrth=T DoCkMO=T.
 Leave Link  401 at Sat Dec 13 15:00:01 2025, MaxMem=   536870912 cpu:               0.0 elap:               0.2
 (Enter D:\G16W\l502.exe)
 Keep J ints in memory in canonical form, NReq=1852917.
 FoFCou: FMM=F IPFlag=           0 FMFlag=           0 FMFlg1=           0
         NFxFlg=           0 DoJE=F BraDBF=F KetDBF=F FulRan=T
         wScrn=  0.000000 ICntrl=       600 IOpCl=  2 I1Cent=           0 NGrid=           0
         NMat0=    1 NMatS0=    107 NMatT0=    0 NMatD0=    1 NMtDS0=    0 NMtDT0=    0
 Symmetry not used in FoFCou.
 Two-electron integral symmetry not used.
 Closed shell SCF:
 Using DIIS extrapolation, IDIIS=  1040.
 Overlap will be assumed to be unity.
 NGot=   536870912 LenX=   536801538 LenY=   536799333
 Requested convergence on RMS density matrix=1.00D-08 within 128 cycles.
 Requested convergence on MAX density matrix=1.00D-06.
 Requested convergence on             energy=1.00D-06.
 No special actions if energy rises.

 Cycle   1  Pass 1  IDiag  1:
 E= 0.359152516084293E-01
 DIIS: error= 2.70D-03 at cycle   1 NSaved=   1.
 NSaved= 1 IEnMin= 1 EnMin= 0.359152516084293E-01 IErMin= 1 ErrMin= 2.70D-03
 ErrMax= 2.70D-03  0.00D+00 EMaxC= 1.00D-01 BMatC= 1.26D-04 BMatP= 1.26D-04
 IDIUse=3 WtCom= 9.73D-01 WtEn= 2.70D-02
 Coeff-Com:  0.100D+01
 Coeff-En:   0.100D+01
 Coeff:      0.100D+01
 GapD=    2.000 DampG=2.000 DampE=1.000 DampFc=2.0000 IDamp=-1.
 RMSDP=6.73D-04 MaxDP=7.82D-03              OVMax= 0.00D+00

 Cycle   2  Pass 1  IDiag  3:
 E= 0.353925641787782E-01 Delta-E=       -0.000522687430 Rises=F Damp=F
 DIIS: error= 1.04D-03 at cycle   2 NSaved=   2.
 NSaved= 2 IEnMin= 2 EnMin= 0.353925641787782E-01 IErMin= 2 ErrMin= 1.04D-03
 ErrMax= 1.04D-03  0.00D+00 EMaxC= 1.00D-01 BMatC= 1.98D-05 BMatP= 1.26D-04
 IDIUse=3 WtCom= 9.90D-01 WtEn= 1.04D-02
 Coeff-Com: -0.440D+00 0.144D+01
 Coeff-En:   0.000D+00 0.100D+01
 Coeff:     -0.435D+00 0.144D+01
 Gap=     0.276 Goal=   None    Shift=    0.000
 RMSDP=4.32D-04 MaxDP=5.16D-03 DE=-5.23D-04 OVMax= 8.20D-03

 Cycle   3  Pass 1  IDiag  3:
 E= 0.352707271579789E-01 Delta-E=       -0.000121837021 Rises=F Damp=F
 DIIS: error= 1.72D-04 at cycle   3 NSaved=   3.
 NSaved= 3 IEnMin= 3 EnMin= 0.352707271579789E-01 IErMin= 3 ErrMin= 1.72D-04
 ErrMax= 1.72D-04  0.00D+00 EMaxC= 1.00D-01 BMatC= 1.32D-06 BMatP= 1.98D-05
 IDIUse=3 WtCom= 9.98D-01 WtEn= 1.72D-03
 Coeff-Com:  0.501D-01-0.338D+00 0.129D+01
 Coeff-En:   0.000D+00 0.000D+00 0.100D+01
 Coeff:      0.500D-01-0.337D+00 0.129D+01
 Gap=     0.276 Goal=   None    Shift=    0.000
 RMSDP=1.37D-04 MaxDP=1.82D-03 DE=-1.22D-04 OVMax= 2.84D-03

 Cycle   4  Pass 1  IDiag  3:
 E= 0.352601025879267E-01 Delta-E=       -0.000010624570 Rises=F Damp=F
 DIIS: error= 6.36D-05 at cycle   4 NSaved=   4.
 NSaved= 4 IEnMin= 4 EnMin= 0.352601025879267E-01 IErMin= 4 ErrMin= 6.36D-05
 ErrMax= 6.36D-05  0.00D+00 EMaxC= 1.00D-01 BMatC= 1.24D-07 BMatP= 1.32D-06
 IDIUse=1 WtCom= 1.00D+00 WtEn= 0.00D+00
 Coeff-Com:  0.190D-01-0.322D-01-0.331D+00 0.134D+01
 Coeff:      0.190D-01-0.322D-01-0.331D+00 0.134D+01
 Gap=     0.276 Goal=   None    Shift=    0.000
 RMSDP=5.02D-05 MaxDP=7.38D-04 DE=-1.06D-05 OVMax= 1.14D-03

 Cycle   5  Pass 1  IDiag  3:
 E= 0.352590416418650E-01 Delta-E=       -0.000001060946 Rises=F Damp=F
 DIIS: error= 1.25D-05 at cycle   5 NSaved=   5.
 NSaved= 5 IEnMin= 5 EnMin= 0.352590416418650E-01 IErMin= 5 ErrMin= 1.25D-05
 ErrMax= 1.25D-05  0.00D+00 EMaxC= 1.00D-01 BMatC= 7.60D-09 BMatP= 1.24D-07
 IDIUse=1 WtCom= 1.00D+00 WtEn= 0.00D+00
 Coeff-Com: -0.105D-01 0.395D-01 0.791D-02-0.450D+00 0.141D+01
 Coeff:     -0.105D-01 0.395D-01 0.791D-02-0.450D+00 0.141D+01
 Gap=     0.276 Goal=   None    Shift=    0.000
 RMSDP=1.11D-05 MaxDP=1.63D-04 DE=-1.06D-06 OVMax= 2.57D-04

 Cycle   6  Pass 1  IDiag  3:
 E= 0.352589909898597E-01 Delta-E=       -0.000000050652 Rises=F Damp=F
 DIIS: error= 2.34D-06 at cycle   6 NSaved=   6.
 NSaved= 6 IEnMin= 6 EnMin= 0.352589909898597E-01 IErMin= 6 ErrMin= 2.34D-06
 ErrMax= 2.34D-06  0.00D+00 EMaxC= 1.00D-01 BMatC= 3.73D-10 BMatP= 7.60D-09
 IDIUse=1 WtCom= 1.00D+00 WtEn= 0.00D+00
 Coeff-Com:  0.429D-02-0.181D-01 0.149D-01 0.143D+00-0.632D+00 0.149D+01
 Coeff:      0.429D-02-0.181D-01 0.149D-01 0.143D+00-0.632D+00 0.149D+01
 Gap=     0.276 Goal=   None    Shift=    0.000
 RMSDP=1.60D-06 MaxDP=1.37D-05 DE=-5.07D-08 OVMax= 1.26D-05

 Cycle   7  Pass 1  IDiag  3:
 E= 0.352589889765511E-01 Delta-E=       -0.000000002013 Rises=F Damp=F
 DIIS: error= 7.30D-07 at cycle   7 NSaved=   7.
 NSaved= 7 IEnMin= 7 EnMin= 0.352589889765511E-01 IErMin= 7 ErrMin= 7.30D-07
 ErrMax= 7.30D-07  0.00D+00 EMaxC= 1.00D-01 BMatC= 2.48D-11 BMatP= 3.73D-10
 IDIUse=1 WtCom= 1.00D+00 WtEn= 0.00D+00
 Coeff-Com: -0.809D-03 0.360D-02-0.496D-02-0.206D-01 0.124D+00-0.539D+00
 Coeff-Com:  0.144D+01
 Coeff:     -0.809D-03 0.360D-02-0.496D-02-0.206D-01 0.124D+00-0.539D+00
 Coeff:      0.144D+01
 Gap=     0.276 Goal=   None    Shift=    0.000
 RMSDP=4.53D-07 MaxDP=4.35D-06 DE=-2.01D-09 OVMax= 3.19D-06

 Cycle   8  Pass 1  IDiag  3:
 E= 0.352589888344994E-01 Delta-E=       -0.000000000142 Rises=F Damp=F
 DIIS: error= 1.33D-07 at cycle   8 NSaved=   8.
 NSaved= 8 IEnMin= 8 EnMin= 0.352589888344994E-01 IErMin= 8 ErrMin= 1.33D-07
 ErrMax= 1.33D-07  0.00D+00 EMaxC= 1.00D-01 BMatC= 1.10D-12 BMatP= 2.48D-11
 IDIUse=1 WtCom= 1.00D+00 WtEn= 0.00D+00
 Coeff-Com:  0.114D-03-0.551D-03 0.880D-03 0.291D-02-0.220D-01 0.130D+00
 Coeff-Com: -0.507D+00 0.139D+01
 Coeff:      0.114D-03-0.551D-03 0.880D-03 0.291D-02-0.220D-01 0.130D+00
 Coeff:     -0.507D+00 0.139D+01
 Gap=     0.276 Goal=   None    Shift=    0.000
 RMSDP=1.02D-07 MaxDP=1.03D-06 DE=-1.42D-10 OVMax= 1.21D-06

 Cycle   9  Pass 1  IDiag  3:
 E= 0.352589888269392E-01 Delta-E=       -0.000000000008 Rises=F Damp=F
 DIIS: error= 3.42D-08 at cycle   9 NSaved=   9.
 NSaved= 9 IEnMin= 9 EnMin= 0.352589888269392E-01 IErMin= 9 ErrMin= 3.42D-08
 ErrMax= 3.42D-08  0.00D+00 EMaxC= 1.00D-01 BMatC= 7.24D-14 BMatP= 1.10D-12
 IDIUse=1 WtCom= 1.00D+00 WtEn= 0.00D+00
 Coeff-Com:  0.830D-06 0.611D-05-0.150D-04-0.501D-04 0.187D-02-0.256D-01
 Coeff-Com:  0.143D+00-0.625D+00 0.151D+01
 Coeff:      0.830D-06 0.611D-05-0.150D-04-0.501D-04 0.187D-02-0.256D-01
 Coeff:      0.143D+00-0.625D+00 0.151D+01
 Gap=     0.276 Goal=   None    Shift=    0.000
 RMSDP=3.18D-08 MaxDP=4.73D-07 DE=-7.56D-12 OVMax= 5.44D-07

 Cycle  10  Pass 1  IDiag  3:
 E= 0.352589888259729E-01 Delta-E=       -0.000000000001 Rises=F Damp=F
 DIIS: error= 7.16D-09 at cycle  10 NSaved=  10.
 NSaved=10 IEnMin=10 EnMin= 0.352589888259729E-01 IErMin=10 ErrMin= 7.16D-09
 ErrMax= 7.16D-09  0.00D+00 EMaxC= 1.00D-01 BMatC= 2.52D-15 BMatP= 7.24D-14
 IDIUse=1 WtCom= 1.00D+00 WtEn= 0.00D+00
 Coeff-Com: -0.343D-05 0.125D-04-0.145D-05-0.136D-03 0.253D-03 0.296D-02
 Coeff-Com: -0.243D-01 0.135D+00-0.459D+00 0.134D+01
 Coeff:     -0.343D-05 0.125D-04-0.145D-05-0.136D-03 0.253D-03 0.296D-02
 Coeff:     -0.243D-01 0.135D+00-0.459D+00 0.134D+01
 Gap=     0.276 Goal=   None    Shift=    0.000
 RMSDP=5.27D-09 MaxDP=8.58D-08 DE=-9.66D-13 OVMax= 1.06D-07

 Cycle  11  Pass 2  IDiag  1:
 SCF Done:  E(RPM7) =  0.352589888260E-01 A.U. after   11 cycles
            NFock= 10  Conv=0.53D-08     -V/T= 1.0006
 KE=-6.217754550952D+01 PE=-2.577721301133D+02 EE= 1.471760757883D+02
 Leave Link  502 at Sat Dec 13 15:00:02 2025, MaxMem=   536870912 cpu:               1.0 elap:               0.6
 (Enter D:\G16W\l801.exe)
 Range of M.O.s used for correlation:     1    41
 NBasis=    41 NAE=    20 NBE=    20 NFC=     0 NFV=     0
 NROrb=     41 NOA=    20 NOB=    20 NVA=    21 NVB=    21
 Leave Link  801 at Sat Dec 13 15:00:02 2025, MaxMem=   536870912 cpu:               0.0 elap:               0.1
 (Enter D:\G16W\l1101.exe)
 Leave Link 1101 at Sat Dec 13 15:00:02 2025, MaxMem=   536870912 cpu:               0.0 elap:               0.1
 (Enter D:\G16W\l1102.exe)
 Symmetrizing basis deriv contribution to polar:
 IMax=3 JMax=2 DiffMx= 0.00D+00
 Leave Link 1102 at Sat Dec 13 15:00:02 2025, MaxMem=   536870912 cpu:               0.0 elap:               0.1
 (Enter D:\G16W\l1110.exe)
 Leave Link 1110 at Sat Dec 13 15:00:02 2025, MaxMem=   536870912 cpu:               0.0 elap:               0.1
 (Enter D:\G16W\l1002.exe)
 Minotr:  Closed shell wavefunction.
 Leave Link 1002 at Sat Dec 13 15:00:02 2025, MaxMem=   536870912 cpu:               0.0 elap:               0.1
 (Enter D:\G16W\l701.exe)
 ... and contract with generalized density number  0.
 Compute integral first derivatives.
 R6Disp: Adding PM7 dispersion energy 1st derivatives to the gradient.
 Leave Link  701 at Sat Dec 13 15:00:03 2025, MaxMem=   536870912 cpu:               1.0 elap:               0.2
 (Enter D:\G16W\l702.exe)
 L702 exits ... SP integral derivatives will be done elsewhere.
 Leave Link  702 at Sat Dec 13 15:00:03 2025, MaxMem=   536870912 cpu:               0.0 elap:               0.1
 (Enter D:\G16W\l703.exe)
 Integral derivatives from FoFJK, PRISM(SPDF).
 Compute integral first derivatives, UseDBF=F ICtDFT=           0.
 Calling FoFJK, ICntrl=      2147 FMM=F ISym2X=0 I1Cent= 0 IOpClX= 0 NMat=1 NMatS=1 NMatT=0.
 FoFJK:  IHMeth=43 ICntrl=    2147 DoSepK=F KAlg= 0 I1Cent=           0 FoldK=F
 IRaf=         0 NMat=       1 IRICut=       1 DoRegI=T DoRafI=F ISym2E= 0 IDoP0=3 IntGTp=3.
 FoFCou: FMM=F IPFlag=           0 FMFlag=      100000 FMFlg1=         800
         NFxFlg=           0 DoJE=F BraDBF=F KetDBF=F FulRan=T
         wScrn=  0.000000 ICntrl=      2147 IOpCl=  0 I1Cent=           0 NGrid=           0
         NMat0=    1 NMatS0=      1 NMatT0=    0 NMatD0=    1 NMtDS0=    0 NMtDT0=    0
 Symmetry not used in FoFCou.
 Leave Link  703 at Sat Dec 13 15:00:03 2025, MaxMem=   536870912 cpu:               0.0 elap:               0.1
 (Enter D:\G16W\l716.exe)
 Dipole        = 4.64120715D+00-3.93432558D-01 1.37843096D+00
 Polarizability= 0.00000000D+00 0.00000000D+00 0.00000000D+00
[...]
      3        6           0.001718973   -0.000160895    0.000453963
      4        6           0.001704118   -0.000087357    0.000524584
      5        1           0.000105783   -0.000002398    0.000020214
      6        1           0.000081676   -0.000029944    0.000048362
      7        1           0.000104886    0.000002038    0.000024473
      8        1           0.000099527   -0.000002399    0.000041144
      9        1           0.000098579   -0.000008361    0.000042620
     10        1           0.000098144   -0.000016310   -0.000002864
     11        1           0.000090141    0.000023309    0.000035181
     12        1           0.000101184   -0.000021254    0.000030239
     13        1           0.000103027   -0.000019728    0.000024503
     14        6           0.001039822   -0.000088378    0.000310752
     15       53          -0.009499325    0.000807397   -0.002838916
     16        1           0.000309342   -0.000355821    0.000004742
     17        1           0.000399408    0.000210795   -0.000135491
     18        1           0.000224189    0.000065728    0.000409564
 -------------------------------------------------------------------
 Cartesian Forces:  Max     0.009499325 RMS     0.001446803
 Z-matrix is all fixed cartesians, so copy forces.
 Leave Link  716 at Sat Dec 13 15:02:17 2025, MaxMem=   536870912 cpu:               0.0 elap:               0.1
 (Enter D:\G16W\l123.exe)
 IRC-IRC-IRC-IRC-IRC-IRC-IRC-IRC-IRC-IRC-IRC-IRC-IRC-IRC-IRC-IRC-IRC-IRC
 Error in corrector energy =          -0.0000061403
 Magnitude of corrector gradient =     0.0110029937
 Magnitude of analytic gradient =      0.0106317899
 Magnitude of difference =             0.0010841444
 Angle between gradients (degrees)=    5.3980
 Pt 40 Step number   2 out of a maximum of  20
 Using modified Bulirsch-Stoer corrector integration.
   Using distance weighted interpolants to fit PES.
 PreDWI: IReCr0= 2 IReCr1= 1 IReCr2= 1 IReCr3= 1
 Modified Bulirsch-Stoer Extrapolation Cycles:
    EPS =    0.000010000000000
    Cycle     1 NS=    48
      PEZero:  N= 2 I= 1 D=  8.67D-04 Err=  2.48D-05
    Cycle     2 NS=    64 Truncation Error =  0.000024755
      PEZero:  N= 3 I= 2 D=  8.67D-04 Err=  1.66D-05
      PEZero:  N= 3 I= 1 D=  1.73D-03 Err=  3.47D-07
    Cycle     3 NS=    96 Truncation Error =  0.000000347
 BS completed in    3 cycles and     208 integration steps.
 Maximum DWI energy   std dev =  0.000003134 at pt    27
 Maximum DWI gradient std dev =  0.217035820 at pt    38
 SUMMARY OF CORRECTOR INTEGRATION:
   Predictor End Point Energy =     0.017044
   Old End Point Energy       =     0.017031
   Corrected End Point Energy =     0.017029
   Predictor End-Start Dist.  =     0.166475
   Old End-Start Dist.        =     0.165898
   New End-Start Dist.        =     0.166216
   New End-Old End Dist.      =     0.008006
 CORRECTOR INTEGRATION CONVERGENCE:
   Recorrection delta-x convergence threshold:    0.010000
   Delta-x Convergence Met
 Point Number:  20          Path Number:   2
                    CURRENT STRUCTURE
                Cartesian Coordinates (Ang):                
 ---------------------------------------------------------------------
 Center     Atomic                     Coordinates (Angstroms)
 Number     Number                        X           Y           Z
 ---------------------------------------------------------------------
      1          6                    3.609588    0.712354    0.017482
      2          7                    2.778525   -0.236161    0.830375
      3          6                    2.879939    0.108262    2.287161
      4          6                    3.234528   -1.647114    0.601434
      5          1                    3.520229    0.486045   -1.063161
      6          1                    4.674211    0.663803    0.291980
      7          1                    3.263789    1.755540    0.155964
      8          1                    2.518805    1.138753    2.473342
      9          1                    2.247561   -0.567623    2.895658
     10          1                    3.914538    0.034854    2.655054
     11          1                    4.283717   -1.792754    0.899961
     12          1                    2.609602   -2.359890    1.174503
     13          1                    3.137287   -1.923009   -0.466937
     14          6                    1.343812   -0.114218    0.401604
     15         53                   -1.615458    0.137306   -0.482787
     16          1                    0.973663    0.919258    0.557676
     17          1                    0.699783   -0.803691    0.984095
     18          1                    1.232593   -0.362567   -0.673289
 ---------------------------------------------------------------------
   CHANGE IN THE REACTION COORDINATE =    0.16622
   NET REACTION COORDINATE UP TO THIS POINT =    3.32368
  # OF POINTS ALONG THE PATH =  40
  # OF STEPS =   2

 Maximum number of steps reached.
 Calculation of REVERSE path complete.
 Reaction path calculation complete.
 
 Energies reported relative to the TS energy of           0.035996
 --------------------------------------------------------------------------
    Summary of reaction path following
 --------------------------------------------------------------------------
                        Energy    RxCoord
   1                   -0.01897  -3.32368
   2                   -0.01872  -3.15746
   3                   -0.01845  -2.99128
   4                   -0.01815  -2.82497
   5                   -0.01783  -2.65870
   6                   -0.01748  -2.49269
   7                   -0.01706  -2.32713
   8                   -0.01653  -2.16238
   9                   -0.01574  -1.99717
  10                   -0.01460  -1.83105
  11                   -0.01313  -1.66467
  12                   -0.01142  -1.49823
  13                   -0.00957  -1.33176
  14                   -0.00770  -1.16529
  15                   -0.00589  -0.99882
  16                   -0.00423  -0.83235
  17                   -0.00278  -0.66588
  18                   -0.00160  -0.49942
  19                   -0.00072  -0.33296
  20                   -0.00018  -0.16651
  21                    0.00000   0.00000
  22                   -0.00018   0.16651
  23                   -0.00074   0.33296
  24                   -0.00165   0.49942
  25                   -0.00291   0.66588
  26                   -0.00450   0.83235
  27                   -0.00638   0.99882
  28                   -0.00851   1.16529
  29                   -0.01086   1.33176
  30                   -0.01338   1.49823
  31                   -0.01601   1.66471
  32                   -0.01872   1.83118
  33                   -0.02144   1.99765
  34                   -0.02413   2.16413
  35                   -0.02674   2.33060
  36                   -0.02922   2.49707
  37                   -0.03152   2.66355
  38                   -0.03359   2.83002
  39                   -0.03541   2.99648
  40                   -0.03691   3.16292
  41                   -0.03809   3.32924
 --------------------------------------------------------------------------
 
 Total number of points:                   40
 Total number of gradient calculations:    44
 Total number of Hessian calculations:      1
 IRC-IRC-IRC-IRC-IRC-IRC-IRC-IRC-IRC-IRC-IRC-IRC-IRC-IRC-IRC-IRC-IRC-IRC
 Leave Link  123 at Sat Dec 13 15:02:17 2025, MaxMem=   536870912 cpu:               0.0 elap:               0.1
 (Enter D:\G16W\l202.exe)
                          Input orientation:                          
 ---------------------------------------------------------------------
 Center     Atomic      Atomic             Coordinates (Angstroms)
 Number     Number       Type             X           Y           Z
 ---------------------------------------------------------------------
      1          6           0        3.609603    0.712318    0.017522
      2          7           0        2.778390   -0.236150    0.830334
      3          6           0        2.879978    0.108247    2.287125
      4          6           0        3.234556   -1.647070    0.601454
      5          1           0        3.520607    0.485777   -1.063025
      6          1           0        4.674392    0.663856    0.291963
      7          1           0        3.264123    1.755489    0.156308
      8          1           0        2.519277    1.138816    2.473260
      9          1           0        2.247986   -0.567852    2.895648
     10          1           0        3.914670    0.034867    2.655189
     11          1           0        4.283874   -1.792860    0.899983
     12          1           0        2.609960   -2.359788    1.174810
     13          1           0        3.137736   -1.922833   -0.466911
     14          6           0        1.344008   -0.114234    0.401663
     15         53           0       -1.615432    0.137304   -0.482779
     16          1           0        0.971560    0.919917    0.557176
     17          1           0        0.697549   -0.803857    0.983798
     18          1           0        1.230614   -0.362522   -0.674379
 ---------------------------------------------------------------------
                    Distance matrix (angstroms):
                    1          2          3          4          5
     1  C    0.000000
     2  N    1.500390   0.000000
     3  C    2.459339   1.500390   0.000000
     4  C    2.459339   1.500390   2.459339   0.000000
     5  H    1.107621   2.157979   3.431682   2.720543   0.000000
     6  H    1.100656   2.166721   2.740309   2.740309   1.788554
     7  H    1.107621   2.157979   2.720543   3.431682   1.778968
     8  H    2.720543   2.157979   1.107621   3.431682   3.732885
     9  H    3.431682   2.157979   1.107621   2.720543   4.289614
    10  H    2.740309   2.166721   1.100656   2.740309   3.766129
    11  H    2.740309   2.166721   2.740309   1.100656   3.102928
    12  H    3.431682   2.157979   2.720543   1.107621   3.732885
    13  H    2.720543   2.157979   3.431682   1.107621   2.510646
    14  C    2.442063   1.502023   2.442063   2.442063   2.691265
    15  I    5.280334   4.601022   5.280334   5.280334   5.180445
    16  H    2.700665   2.162346   2.700666   3.422358   3.051421
    17  H    3.422358   2.162346   2.700665   2.700666   3.717835
    18  H    2.700666   2.162346   3.422358   2.700665   2.472797
                    6          7          8          9         10
     6  H    0.000000
     7  H    1.788554   0.000000
     8  H    3.102928   2.510646   0.000000
     9  H    3.766129   3.732885   1.778968   0.000000
    10  H    2.560790   3.102928   1.788554   1.788554   0.000000
    11  H    2.560790   3.766129   3.766128   3.102928   2.560790
    12  H    3.766129   4.289614   3.732885   2.510646   3.102928
    13  H    3.102928   3.732885   4.289614   3.732885   3.766129
    14  C    3.421829   2.691265   2.691265   2.691265   3.421829
    15  I    6.359196   5.180445   5.180445   5.180445   6.359196
    16  H    3.721139   2.472797   2.472797   3.051421   3.721139
    17  H    4.295125   3.717835   3.051421   2.472797   3.721139
    18  H    3.721139   3.051421   3.717835   3.717835   4.295125
                   11         12         13         14         15
    11  H    0.000000
    12  H    1.788554   0.000000
    13  H    1.788554   1.778968   0.000000
    14  C    3.421829   2.691265   2.691265   0.000000
    15  I    6.359196   5.180445   5.180446   3.098999   0.000000
    16  H    4.295125   3.717835   3.717835   1.110122   2.895948
    17  H    3.721139   2.472797   3.051421   1.110122   2.895948
    18  H    3.721139   3.051421   2.472797   1.110122   2.895948
                   16         17         18
    16  H    0.000000
    17  H    1.796798   0.000000
    18  H    1.796798   1.796798   0.000000
 Symmetry turned off by external request.
 This structure is nearly, but not quite of a higher symmetry.
 Consider Symm=Loose if the higher symmetry is desired.
 Stoichiometry    C4H12IN
 Framework group  C1[X(C4H12IN)]
 Deg. of freedom    48
 Full point group                 C1      NOp   1
 Rotational constants (GHZ):           4.5723310           0.4616552           0.4616552
 Leave Link  202 at Sat Dec 13 15:02:17 2025, MaxMem=   536870912 cpu:               0.0 elap:               0.1
 (Enter D:\G16W\l601.exe)
 Copying SCF densities to generalized density rwf, IOpCl= 0 IROHF=0.

 **********************************************************************

            Population analysis using the SCF density.

 **********************************************************************

 Alpha  occ. eigenvalues --   -1.46371  -1.00919  -1.00919  -0.98288  -0.89464
 Alpha  occ. eigenvalues --   -0.71121  -0.71121  -0.70489  -0.64952  -0.60393
 Alpha  occ. eigenvalues --   -0.60393  -0.56697  -0.56656  -0.56656  -0.55703
 Alpha  occ. eigenvalues --   -0.53439  -0.53439  -0.25248  -0.25159  -0.25159
 Alpha virt. eigenvalues --   -0.04060   0.04032   0.04032   0.05448   0.10955
 Alpha virt. eigenvalues --    0.10955   0.11334   0.11334   0.11410   0.11425
 Alpha virt. eigenvalues --    0.14113   0.14723   0.14723   0.15822   0.15822
 Alpha virt. eigenvalues --    0.19412   4.97256   4.97256   4.97320   4.97775
 Alpha virt. eigenvalues --    4.97775
          Condensed to atoms (all electrons):
               1          2          3          4          5          6
     1  C    4.345181   0.000000   0.000000   0.000000   0.000000   0.000000
     2  N    0.000000   4.926438   0.000000   0.000000   0.000000   0.000000
     3  C    0.000000   0.000000   4.345181   0.000000   0.000000   0.000000
     4  C    0.000000   0.000000   0.000000   4.345181   0.000000   0.000000
     5  H    0.000000   0.000000   0.000000   0.000000   0.808695   0.000000
     6  H    0.000000   0.000000   0.000000   0.000000   0.000000   0.834223
     7  H    0.000000   0.000000   0.000000   0.000000   0.000000   0.000000
     8  H    0.000000   0.000000   0.000000   0.000000   0.000000   0.000000
     9  H    0.000000   0.000000   0.000000   0.000000   0.000000   0.000000
    10  H    0.000000   0.000000   0.000000   0.000000   0.000000   0.000000
    11  H    0.000000   0.000000   0.000000   0.000000   0.000000   0.000000
    12  H    0.000000   0.000000   0.000000   0.000000   0.000000   0.000000
    13  H    0.000000   0.000000   0.000000   0.000000   0.000000   0.000000
    14  C    0.000000   0.000000   0.000000   0.000000   0.000000   0.000000
    15  I    0.000000   0.000000   0.000000   0.000000   0.000000   0.000000
    16  H    0.000000   0.000000   0.000000   0.000000   0.000000   0.000000
    17  H    0.000000   0.000000   0.000000   0.000000   0.000000   0.000000
    18  H    0.000000   0.000000   0.000000   0.000000   0.000000   0.000000
               7          8          9         10         11         12
     1  C    0.000000   0.000000   0.000000   0.000000   0.000000   0.000000
     2  N    0.000000   0.000000   0.000000   0.000000   0.000000   0.000000
     3  C    0.000000   0.000000   0.000000   0.000000   0.000000   0.000000
     4  C    0.000000   0.000000   0.000000   0.000000   0.000000   0.000000
     5  H    0.000000   0.000000   0.000000   0.000000   0.000000   0.000000
     6  H    0.000000   0.000000   0.000000   0.000000   0.000000   0.000000
     7  H    0.808695   0.000000   0.000000   0.000000   0.000000   0.000000
     8  H    0.000000   0.808695   0.000000   0.000000   0.000000   0.000000
     9  H    0.000000   0.000000   0.808695   0.000000   0.000000   0.000000
    10  H    0.000000   0.000000   0.000000   0.834223   0.000000   0.000000
    11  H    0.000000   0.000000   0.000000   0.000000   0.834223   0.000000
    12  H    0.000000   0.000000   0.000000   0.000000   0.000000   0.808695
    13  H    0.000000   0.000000   0.000000   0.000000   0.000000   0.000000
    14  C    0.000000   0.000000   0.000000   0.000000   0.000000   0.000000
    15  I    0.000000   0.000000   0.000000   0.000000   0.000000   0.000000
    16  H    0.000000   0.000000   0.000000   0.000000   0.000000   0.000000
    17  H    0.000000   0.000000   0.000000   0.000000   0.000000   0.000000
    18  H    0.000000   0.000000   0.000000   0.000000   0.000000   0.000000
              13         14         15         16         17         18
     1  C    0.000000   0.000000   0.000000   0.000000   0.000000   0.000000
     2  N    0.000000   0.000000   0.000000   0.000000   0.000000   0.000000
     3  C    0.000000   0.000000   0.000000   0.000000   0.000000   0.000000
     4  C    0.000000   0.000000   0.000000   0.000000   0.000000   0.000000
     5  H    0.000000   0.000000   0.000000   0.000000   0.000000   0.000000
     6  H    0.000000   0.000000   0.000000   0.000000   0.000000   0.000000
     7  H    0.000000   0.000000   0.000000   0.000000   0.000000   0.000000
     8  H    0.000000   0.000000   0.000000   0.000000   0.000000   0.000000
     9  H    0.000000   0.000000   0.000000   0.000000   0.000000   0.000000
    10  H    0.000000   0.000000   0.000000   0.000000   0.000000   0.000000
    11  H    0.000000   0.000000   0.000000   0.000000   0.000000   0.000000
    12  H    0.000000   0.000000   0.000000   0.000000   0.000000   0.000000
    13  H    0.808695   0.000000   0.000000   0.000000   0.000000   0.000000
    14  C    0.000000   4.333944   0.000000   0.000000   0.000000   0.000000
    15  I    0.000000   0.000000   7.972874   0.000000   0.000000   0.000000
    16  H    0.000000   0.000000   0.000000   0.792121   0.000000   0.000000
    17  H    0.000000   0.000000   0.000000   0.000000   0.792121   0.000000
    18  H    0.000000   0.000000   0.000000   0.000000   0.000000   0.792121
 Mulliken charges:
               1
     1  C   -0.345181
     2  N    0.073562
     3  C   -0.345181
     4  C   -0.345181
     5  H    0.191305
     6  H    0.165777
     7  H    0.191305
     8  H    0.191305
     9  H    0.191305
    10  H    0.165777
    11  H    0.165777
    12  H    0.191305
    13  H    0.191305
    14  C   -0.333944
    15  I   -0.972874
    16  H    0.207879
    17  H    0.207879
    18  H    0.207879
 Sum of Mulliken charges =   0.00000
 Mulliken charges with hydrogens summed into heavy atoms:
               1
     1  C    0.203206
     2  N    0.073562
     3  C    0.203206
     4  C    0.203206
    14  C    0.289694
    15  I   -0.972874
 APT charges:
               1
     1  C   -0.345181
     2  N    0.073562
     3  C   -0.345181
     4  C   -0.345181
     5  H    0.191305
     6  H    0.165777
     7  H    0.191305
     8  H    0.191305
     9  H    0.191305
    10  H    0.165777
    11  H    0.165777
    12  H    0.191305
    13  H    0.191305
    14  C   -0.333944
    15  I   -0.972874
    16  H    0.207879
    17  H    0.207879
    18  H    0.207879
 Sum of APT charges =   0.00000
 APT charges with hydrogens summed into heavy atoms:
               1
     1  C    0.203206
     2  N    0.073562
     3  C    0.203206
     4  C    0.203206
    14  C    0.289694
    15  I   -0.972874
 Charge=              0.0000 electrons
 Dipole moment (field-independent basis, Debye):
    X=             19.5041    Y=             -1.6602    Z=              5.8233  Tot=             20.4225
 N-N= 1.742312261420D+02 E-N=-2.589349476272D+02  KE=-6.264175740767D+01
  Exact polarizability:   0.000   0.000   0.000   0.000   0.000   0.000
 Approx polarizability:  37.247  -0.948  26.292   3.309  -0.285  26.269
 Leave Link  601 at Sat Dec 13 15:02:17 2025, MaxMem=   536870912 cpu:               0.0 elap:               0.1
 (Enter D:\G16W\l9999.exe)

 This type of calculation cannot be archived.


 ART, GLORY, FREEDOM FAIL, BUT NATURE STILL IS FAIR.

                                           -- BYRON
 Job cpu time:       0 days  0 hours  2 minutes 25.0 seconds.
 Elapsed time:       0 days  0 hours  1 minutes 48.6 seconds.
 File lengths (MBytes):  RWF=     16 Int=      0 D2E=      0 Chk=      5 Scr=      1
 Normal termination of Gaussian 16 at Sat Dec 13 15:02:18 2025.
