 Entering Gaussian System, Link 0=g16.exe
 Input=Me3N_ts.gjf
 Output=Me3N_ts.log
 Initial command:
 D:\G16W\l1.exe ".\Gau-21148.inp" "Me3N_ts.log" /scrdir=".\"
 Entering Link 1 = D:\G16W\l1.exe PID=      7280.
  
 Copyright (c) 1988,1990,1992,1993,1995,1998,2003,2009,2016,
            Gaussian, Inc.  All Rights Reserved.
  
 This is part of the Gaussian(R) 16 program.  It is based on
 the Gaussian(R) 09 system (copyright 2009, Gaussian, Inc.),
 the Gaussian(R) 03 system (copyright 2003, Gaussian, Inc.),
 the Gaussian(R) 98 system (copyright 1998, Gaussian, Inc.),
 the Gaussian(R) 94 system (copyright 1995, Gaussian, Inc.),
 the Gaussian 92(TM) system (copyright 1992, Gaussian, Inc.),
 the Gaussian 90(TM) system (copyright 1990, Gaussian, Inc.),
 the Gaussian 88(TM) system (copyright 1988, Gaussian, Inc.),
 the Gaussian 86(TM) system (copyright 1986, Carnegie Mellon
 University), and the Gaussian 82(TM) system (copyright 1983,
 Carnegie Mellon University). Gaussian is a federally registered
 trademark of Gaussian, Inc.
  
 This software contains proprietary and confidential information,
 including trade secrets, belonging to Gaussian, Inc.
  
 This software is provided under written license and may be
 used, copied, transmitted, or stored only in accord with that
 written license.
  
 The following legend is applicable only to US Government
 contracts under FAR:
  
                    RESTRICTED RIGHTS LEGEND
  
 Use, reproduction and disclosure by the US Government is
 subject to restrictions as set forth in subparagraphs (a)
 and (c) of the Commercial Computer Software - Restricted
 Rights clause in FAR 52.227-19.
  
 Gaussian, Inc.
 340 Quinnipiac St., Bldg. 40, Wallingford CT 06492
  
  
 ---------------------------------------------------------------
 Warning -- This program may not be used in any manner that
 competes with the business of Gaussian, Inc. or will provide
 assistance to any competitor of Gaussian, Inc.  The licensee
 of this program is prohibited from giving any competitor of
 Gaussian, Inc. access to this program.  By using this program,
 the user acknowledges that Gaussian, Inc. is engaged in the
 business of creating and licensing software in the field of
 computational chemistry and represents and warrants to the
 licensee that it is not a competitor of Gaussian, Inc. and that
 it will not use this program in any manner prohibited above.
 ---------------------------------------------------------------
  

 Cite this work as:
 Gaussian 16, Revision A.03,
 M. J. Frisch, G. W. Trucks, H. B. Schlegel, G. E. Scuseria, 
 M. A. Robb, J. R. Cheeseman, G. Scalmani, V. Barone, 
 G. A. Petersson, H. Nakatsuji, X. Li, M. Caricato, A. V. Marenich, 
 J. Bloino, B. G. Janesko, R. Gomperts, B. Mennucci, H. P. Hratchian, 
 J. V. Ortiz, A. F. Izmaylov, J. L. Sonnenberg, D. Williams-Young, 
 F. Ding, F. Lipparini, F. Egidi, J. Goings, B. Peng, A. Petrone, 
 T. Henderson, D. Ranasinghe, V. G. Zakrzewski, J. Gao, N. Rega, 
 G. Zheng, W. Liang, M. Hada, M. Ehara, K. Toyota, R. Fukuda, 
 J. Hasegawa, M. Ishida, T. Nakajima, Y. Honda, O. Kitao, H. Nakai, 
 T. Vreven, K. Throssell, J. A. Montgomery, Jr., J. E. Peralta, 
 F. Ogliaro, M. J. Bearpark, J. J. Heyd, E. N. Brothers, K. N. Kudin, 
 V. N. Staroverov, T. A. Keith, R. Kobayashi, J. Normand, 
 K. Raghavachari, A. P. Rendell, J. C. Burant, S. S. Iyengar, 
 J. Tomasi, M. Cossi, J. M. Millam, M. Klene, C. Adamo, R. Cammi, 
 J. W. Ochterski, R. L. Martin, K. Morokuma, O. Farkas, 
 J. B. Foresman, and D. J. Fox, Gaussian, Inc., Wallingford CT, 2016.
 
 ******************************************
 Gaussian 16:  EM64W-G16RevA.03 17-Dec-2016
                13-Dec-2025 
 ******************************************
 %nproc=6
 Will use up to    6 processors via shared memory.
 %mem=4GB
 -------------------------------
 #PM7 opt(ts,calcall,noeig) freq
 -------------------------------
 1/5=1,10=4,11=1,18=20,26=1,38=1/1,3;
 2/9=110,12=2,17=6,18=5,40=1/2;
 3/5=2,25=1,41=4200000,71=2,140=1/1,2,3;
 4/35=1/1;
 5/5=2,35=1,38=5/2;
 8/6=4,10=90,11=11/1;
 11/6=1,8=1,9=11,15=111,16=1/1,2,10;
 10/6=1/2;
 6/7=2,8=2,9=2,10=2,18=1,28=1/1;
 7/10=1,25=1/1,2,3,16;
 1/5=1,10=4,11=1,18=20,26=1/3(3);
 2/9=110/2;
 7/8=1,9=1,25=1,44=-1/16;
 99//99;
 2/9=110/2;
 3/5=2,25=1,41=4200000,71=2,135=20,140=1/1,2,3;
 4/5=5,16=3,35=1/1;
 5/5=2,35=1,38=5/2;
 8/6=4,10=90,11=11/1;
 11/6=1,8=1,9=11,15=111,16=1/1,2,10;
 10/6=1/2;
 7/10=1,25=1/1,2,3,16;
 1/5=1,10=4,11=1,18=20,26=1/3(-8);
 2/9=110/2;
 6/7=2,8=2,9=2,10=2,18=1,19=2,28=1/1;
 7/8=1,9=1,25=1,44=-1/16;
 99//99;
 Leave Link    1 at Sat Dec 13 11:37:36 2025, MaxMem=   536870912 cpu:               1.0 elap:               0.1
 (Enter D:\G16W\l101.exe)
 --------------
 title: Me3N_TS
 --------------
 Symbolic Z-matrix:
 Charge =  0 Multiplicity = 1
 C                     2.99224   0.98433   1.00715 
 N                     2.51415  -0.00002   0.00003 
 C                     2.99247  -1.3643    0.34894 
 C                     2.99261   0.38008  -1.35586 
 H                     2.60833   1.99067   0.76409 
 H                     4.08955   1.04409   1.06825 
 H                     2.60836   0.7184    2.00767 
 H                     2.60831  -1.65721   1.34182 
 H                     2.60897  -2.09778  -0.38188 
 H                     4.08978  -1.44686   0.37045 
 H                     4.08996   0.40295  -1.43793 
 H                     2.60893  -0.33351  -2.106 
 H                     2.60894   1.37961  -1.62576 
 C                     0.61415  -0.00011  -0.0003 
 I                    -1.97681   0.        0.00001 
 H                     0.56738  -0.29207   1.04292 
 H                     0.56726  -0.75769  -0.77463 
 H                     0.56739   1.04932  -0.26909 
 
 Add virtual bond connecting atoms C14        and N2         Dist= 3.59D+00.
 Add virtual bond connecting atoms I15        and C14        Dist= 4.90D+00.
 ITRead=  0  0  0  0  0  0  0  0  0  0  0  0  0  0  0  0  0  0
 MicOpt= -1 -1 -1 -1 -1 -1 -1 -1 -1 -1 -1 -1 -1 -1 -1 -1 -1 -1
 NAtoms=     18 NQM=       18 NQMF=       0 NMMI=      0 NMMIF=      0
                NMic=       0 NMicF=      0.
                    Isotopes and Nuclear Properties:
 (Nuclear quadrupole moments (NQMom) in fm**2, nuclear magnetic moments (NMagM)
  in nuclear magnetons)

  Atom         1           2           3           4           5           6           7           8           9          10
 IAtWgt=          12          14          12          12           1           1           1           1           1           1
 AtmWgt=  12.0000000  14.0030740  12.0000000  12.0000000   1.0078250   1.0078250   1.0078250   1.0078250   1.0078250   1.0078250
 NucSpn=           0           2           0           0           1           1           1           1           1           1
 AtZEff=   0.0000000   0.0000000   0.0000000   0.0000000   0.0000000   0.0000000   0.0000000   0.0000000   0.0000000   0.0000000
 NQMom=    0.0000000   2.0440000   0.0000000   0.0000000   0.0000000   0.0000000   0.0000000   0.0000000   0.0000000   0.0000000
 NMagM=    0.0000000   0.4037610   0.0000000   0.0000000   2.7928460   2.7928460   2.7928460   2.7928460   2.7928460   2.7928460
 AtZNuc=   6.0000000   7.0000000   6.0000000   6.0000000   1.0000000   1.0000000   1.0000000   1.0000000   1.0000000   1.0000000

  Atom        11          12          13          14          15          16          17          18
 IAtWgt=           1           1           1          12         127           1           1           1
 AtmWgt=   1.0078250   1.0078250   1.0078250  12.0000000 126.9004000   1.0078250   1.0078250   1.0078250
 NucSpn=           1           1           1           0           5           1           1           1
 AtZEff=   0.0000000   0.0000000   0.0000000   0.0000000   0.0000000   0.0000000   0.0000000   0.0000000
 NQMom=    0.0000000   0.0000000   0.0000000   0.0000000 -71.0000000   0.0000000   0.0000000   0.0000000
 NMagM=    2.7928460   2.7928460   2.7928460   0.0000000   2.8132800   2.7928460   2.7928460   2.7928460
 AtZNuc=   1.0000000   1.0000000   1.0000000   6.0000000  53.0000000   1.0000000   1.0000000   1.0000000
 Leave Link  101 at Sat Dec 13 11:37:36 2025, MaxMem=   536870912 cpu:               0.0 elap:               0.2
 (Enter D:\G16W\l103.exe)

 GradGradGradGradGradGradGradGradGradGradGradGradGradGradGradGradGradGrad
 Berny optimization.
 Initialization pass.
                           ----------------------------
                           !    Initial Parameters    !
                           ! (Angstroms and Degrees)  !
 --------------------------                            --------------------------
 ! Name  Definition              Value          Derivative Info.                !
 --------------------------------------------------------------------------------
 ! R1    R(1,2)                  1.4872         calculate D2E/DX2 analytically  !
 ! R2    R(1,5)                  1.1042         calculate D2E/DX2 analytically  !
 ! R3    R(1,6)                  1.1006         calculate D2E/DX2 analytically  !
 ! R4    R(1,7)                  1.1041         calculate D2E/DX2 analytically  !
 ! R5    R(2,3)                  1.4872         calculate D2E/DX2 analytically  !
 ! R6    R(2,4)                  1.4872         calculate D2E/DX2 analytically  !
 ! R7    R(2,14)                 1.9            calculate D2E/DX2 analytically  !
 ! R8    R(3,8)                  1.1042         calculate D2E/DX2 analytically  !
 ! R9    R(3,9)                  1.1042         calculate D2E/DX2 analytically  !
 ! R10   R(3,10)                 1.1006         calculate D2E/DX2 analytically  !
 ! R11   R(4,11)                 1.1006         calculate D2E/DX2 analytically  !
 ! R12   R(4,12)                 1.1041         calculate D2E/DX2 analytically  !
 ! R13   R(4,13)                 1.1041         calculate D2E/DX2 analytically  !
 ! R14   R(14,15)                2.591          calculate D2E/DX2 analytically  !
 ! R15   R(14,16)                1.0843         calculate D2E/DX2 analytically  !
 ! R16   R(14,17)                1.0843         calculate D2E/DX2 analytically  !
 ! R17   R(14,18)                1.0843         calculate D2E/DX2 analytically  !
 ! A1    A(2,1,5)              110.0225         calculate D2E/DX2 analytically  !
 ! A2    A(2,1,6)              113.2059         calculate D2E/DX2 analytically  !
 ! A3    A(2,1,7)              110.0268         calculate D2E/DX2 analytically  !
 ! A4    A(5,1,6)              108.0215         calculate D2E/DX2 analytically  !
 ! A5    A(5,1,7)              107.3428         calculate D2E/DX2 analytically  !
 ! A6    A(6,1,7)              108.0231         calculate D2E/DX2 analytically  !
 ! A7    A(1,2,3)              110.1755         calculate D2E/DX2 analytically  !
 ! A8    A(1,2,4)              110.1702         calculate D2E/DX2 analytically  !
 ! A9    A(1,2,14)             108.7609         calculate D2E/DX2 analytically  !
 ! A10   A(3,2,4)              110.1737         calculate D2E/DX2 analytically  !
 ! A11   A(3,2,14)             108.7608         calculate D2E/DX2 analytically  !
 ! A12   A(4,2,14)             108.7579         calculate D2E/DX2 analytically  !
 ! A13   A(2,3,8)              110.0242         calculate D2E/DX2 analytically  !
 ! A14   A(2,3,9)              110.0227         calculate D2E/DX2 analytically  !
 ! A15   A(2,3,10)             113.2069         calculate D2E/DX2 analytically  !
 ! A16   A(8,3,9)              107.3437         calculate D2E/DX2 analytically  !
 ! A17   A(8,3,10)             108.0232         calculate D2E/DX2 analytically  !
 ! A18   A(9,3,10)             108.0219         calculate D2E/DX2 analytically  !
 ! A19   A(2,4,11)             113.2062         calculate D2E/DX2 analytically  !
 ! A20   A(2,4,12)             110.0247         calculate D2E/DX2 analytically  !
 ! A21   A(2,4,13)             110.0247         calculate D2E/DX2 analytically  !
 ! A22   A(11,4,12)            108.0126         calculate D2E/DX2 analytically  !
 ! A23   A(11,4,13)            108.0231         calculate D2E/DX2 analytically  !
 ! A24   A(12,4,13)            107.3518         calculate D2E/DX2 analytically  !
 ! A25   A(2,14,16)             92.4637         calculate D2E/DX2 analytically  !
 ! A26   A(2,14,17)             92.4878         calculate D2E/DX2 analytically  !
 ! A27   A(2,14,18)             92.4714         calculate D2E/DX2 analytically  !
 ! A28   A(15,14,16)            87.5219         calculate D2E/DX2 analytically  !
 ! A29   A(15,14,17)            87.5277         calculate D2E/DX2 analytically  !
 ! A30   A(15,14,18)            87.5275         calculate D2E/DX2 analytically  !
 ! A31   A(16,14,17)           119.8064         calculate D2E/DX2 analytically  !
 ! A32   A(16,14,18)           119.817          calculate D2E/DX2 analytically  !
 ! A33   A(17,14,18)           119.8223         calculate D2E/DX2 analytically  !
 ! A34   L(2,14,15,16,-1)      179.9856         calculate D2E/DX2 analytically  !
 ! A35   L(2,14,15,16,-2)      179.9904         calculate D2E/DX2 analytically  !
 ! D1    D(5,1,2,3)           -178.1518         calculate D2E/DX2 analytically  !
 ! D2    D(5,1,2,4)             60.0863         calculate D2E/DX2 analytically  !
 ! D3    D(5,1,2,14)           -59.0295         calculate D2E/DX2 analytically  !
 ! D4    D(6,1,2,3)             60.8846         calculate D2E/DX2 analytically  !
 ! D5    D(6,1,2,4)            -60.8774         calculate D2E/DX2 analytically  !
 ! D6    D(6,1,2,14)          -179.9931         calculate D2E/DX2 analytically  !
 ! D7    D(7,1,2,3)            -60.0842         calculate D2E/DX2 analytically  !
 ! D8    D(7,1,2,4)            178.1538         calculate D2E/DX2 analytically  !
 ! D9    D(7,1,2,14)            59.0381         calculate D2E/DX2 analytically  !
 ! D10   D(1,2,3,8)             60.1009         calculate D2E/DX2 analytically  !
 ! D11   D(1,2,3,9)            178.1681         calculate D2E/DX2 analytically  !
 ! D12   D(1,2,3,10)           -60.8669         calculate D2E/DX2 analytically  !
 ! D13   D(4,2,3,8)           -178.1393         calculate D2E/DX2 analytically  !
 ! D14   D(4,2,3,9)            -60.072          calculate D2E/DX2 analytically  !
 ! D15   D(4,2,3,10)            60.893          calculate D2E/DX2 analytically  !
 ! D16   D(14,2,3,8)           -59.0215         calculate D2E/DX2 analytically  !
 ! D17   D(14,2,3,9)            59.0457         calculate D2E/DX2 analytically  !
 ! D18   D(14,2,3,10)         -179.9893         calculate D2E/DX2 analytically  !
 ! D19   D(1,2,4,11)            60.8953         calculate D2E/DX2 analytically  !
 ! D20   D(1,2,4,12)          -178.1508         calculate D2E/DX2 analytically  !
 ! D21   D(1,2,4,13)           -60.0721         calculate D2E/DX2 analytically  !
 ! D22   D(3,2,4,11)           -60.8677         calculate D2E/DX2 analytically  !
 ! D23   D(3,2,4,12)            60.0862         calculate D2E/DX2 analytically  !
 ! D24   D(3,2,4,13)           178.1649         calculate D2E/DX2 analytically  !
 ! D25   D(14,2,4,11)         -179.9872         calculate D2E/DX2 analytically  !
 ! D26   D(14,2,4,12)          -59.0333         calculate D2E/DX2 analytically  !
 ! D27   D(14,2,4,13)           59.0454         calculate D2E/DX2 analytically  !
 ! D28   D(1,2,14,16)          -59.981          calculate D2E/DX2 analytically  !
 ! D29   D(1,2,14,17)         -179.9724         calculate D2E/DX2 analytically  !
 ! D30   D(1,2,14,18)           60.0197         calculate D2E/DX2 analytically  !
 ! D31   D(3,2,14,16)           60.0229         calculate D2E/DX2 analytically  !
 ! D32   D(3,2,14,17)          -59.9684         calculate D2E/DX2 analytically  !
 ! D33   D(3,2,14,18)         -179.9763         calculate D2E/DX2 analytically  !
 ! D34   D(4,2,14,16)         -179.977          calculate D2E/DX2 analytically  !
 ! D35   D(4,2,14,17)           60.0317         calculate D2E/DX2 analytically  !
 ! D36   D(4,2,14,18)          -59.9762         calculate D2E/DX2 analytically  !
 --------------------------------------------------------------------------------
 Trust Radius=3.00D-01 FncErr=1.00D-07 GrdErr=1.00D-07 EigMax=2.50D+02 EigMin=1.00D-04
 Number of steps in this run=     98 maximum allowed number of steps=    108.
 Search for a saddle point of order  1.
 GradGradGradGradGradGradGradGradGradGradGradGradGradGradGradGradGradGrad

 Leave Link  103 at Sat Dec 13 11:37:36 2025, MaxMem=   536870912 cpu:               0.0 elap:               0.1
 (Enter D:\G16W\l202.exe)
                          Input orientation:                          
 ---------------------------------------------------------------------
 Center     Atomic      Atomic             Coordinates (Angstroms)
 Number     Number       Type             X           Y           Z
 ---------------------------------------------------------------------
      1          6           0        2.992244    0.984326    1.007149
      2          7           0        2.514150   -0.000015    0.000028
      3          6           0        2.992472   -1.364298    0.348940
      4          6           0        2.992610    0.380078   -1.355862
      5          1           0        2.608330    1.990668    0.764091
      6          1           0        4.089547    1.044093    1.068253
      7          1           0        2.608356    0.718400    2.007671
      8          1           0        2.608311   -1.657213    1.341816
      9          1           0        2.608972   -2.097780   -0.381880
     10          1           0        4.089782   -1.446859    0.370446
     11          1           0        4.089957    0.402954   -1.437932
     12          1           0        2.608925   -0.333514   -2.106003
     13          1           0        2.608942    1.379608   -1.625758
     14          6           0        0.614151   -0.000110   -0.000297
     15         53           0       -1.976812    0.000004    0.000006
     16          1           0        0.567377   -0.292068    1.042919
     17          1           0        0.567255   -0.757692   -0.774625
     18          1           0        0.567388    1.049319   -0.269089
 ---------------------------------------------------------------------
                    Distance matrix (angstroms):
                    1          2          3          4          5
     1  C    0.000000
     2  N    1.487210   0.000000
     3  C    2.439113   1.487212   0.000000
     4  C    2.439044   1.487223   2.439098   0.000000
     5  H    1.104170   2.134357   3.402310   2.689958   0.000000
     6  H    1.100627   2.170977   2.742505   2.742357   1.783963
     7  H    1.104143   2.134391   2.690086   3.402274   1.779089
     8  H    2.690192   2.134377   1.104166   3.402309   3.693346
     9  H    3.402305   2.134353   1.104158   2.689907   4.246017
    10  H    2.742379   2.170987   1.100622   2.742558   3.763808
    11  H    2.742515   2.171009   2.742365   1.100649   3.092727
    12  H    3.402257   2.134378   2.690050   1.104146   3.693137
    13  H    2.689864   2.134368   3.402286   1.104131   2.466733
    14  C    2.763944   1.899999   2.763944   2.763904   2.919629
    15  I    5.164760   4.490962   5.164965   5.165074   5.056688
    16  H    2.740518   2.227744   2.740870   3.476735   3.074755
    17  H    3.477056   2.228130   2.740811   2.741296   3.753281
    18  H    2.740973   2.227871   3.476858   2.740558   2.473670
                    6          7          8          9         10
     6  H    0.000000
     7  H    1.783959   0.000000
     8  H    3.092887   2.467164   0.000000
     9  H    3.763822   3.693349   1.779109   0.000000
    10  H    2.586847   3.092487   1.783974   1.783954   0.000000
    11  H    2.586894   3.763885   3.763849   3.092286   2.586898
    12  H    3.763767   4.246038   3.693188   2.466827   3.092778
    13  H    3.092322   3.693102   4.246031   3.693164   3.763859
    14  C    3.782927   2.919768   2.919577   2.919784   3.782928
    15  I    6.247558   5.056736   5.056696   5.057267   6.247736
    16  H    3.767181   2.473335   2.473534   3.075509   3.767373
    17  H    4.364535   3.753147   3.074796   2.473599   3.767537
    18  H    3.767508   3.075499   3.753092   3.753001   4.364306
                   11         12         13         14         15
    11  H    0.000000
    12  H    1.783861   0.000000
    13  H    1.783967   1.779163   0.000000
    14  C    3.782920   2.919637   2.919749   0.000000
    15  I    6.247857   5.057222   5.057228   2.590963   0.000000
    16  H    4.364201   3.753045   3.752909   1.084309   2.765117
    17  H    3.767825   2.474047   3.075868   1.084303   2.765218
    18  H    3.767290   3.074793   2.473375   1.084314   2.765217
                   16         17         18
    16  H    0.000000
    17  H    1.876239   0.000000
    18  H    1.876349   1.876394   0.000000
 Stoichiometry    C4H12IN
 Framework group  C1[X(C4H12IN)]
 Deg. of freedom    48
 Full point group                 C1      NOp   1
 Largest Abelian subgroup         C1      NOp   1
 Largest concise Abelian subgroup C1      NOp   1
                         Standard orientation:                         
 ---------------------------------------------------------------------
 Center     Atomic      Atomic             Coordinates (Angstroms)
 Number     Number       Type             X           Y           Z
 ---------------------------------------------------------------------
      1          6           0        2.992244   -0.986301   -1.005215
      2          7           0        2.514150    0.000015   -0.000028
      3          6           0        2.992472    1.363611   -0.351617
      4          6           0        2.992610   -0.377416    1.356605
      5          1           0        2.608330   -1.992164   -0.760182
      6          1           0        4.089547   -1.046188   -1.066201
      7          1           0        2.608356   -0.722340   -2.006257
      8          1           0        2.608311    1.654576   -1.345067
      9          1           0        2.608972    2.098526    0.377761
     10          1           0        4.089782    1.446129   -0.373286
     11          1           0        4.089957   -0.400130    1.438720
     12          1           0        2.608925    0.337648    2.105344
     13          1           0        2.608942   -1.376414    1.628463
     14          6           0        0.614151    0.000111    0.000297
     15         53           0       -1.976812   -0.000004   -0.000006
     16          1           0        0.567377    0.290020   -1.043490
     17          1           0        0.567255    0.759211    0.773136
     18          1           0        0.567388   -1.048789    0.271148
 ---------------------------------------------------------------------
 Rotational constants (GHZ):           4.6290632           0.4888939           0.4888921
 Leave Link  202 at Sat Dec 13 11:37:36 2025, MaxMem=   536870912 cpu:               0.0 elap:               0.1
 (Enter D:\G16W\l301.exe)
 Standard basis: VSTO-6G (5D, 7F)
 Ernie: Thresh=  0.10000D-02 Tol=  0.10000D-05 Strict=F.
 EHB=         0.000000000 Number of Hydrogen Bonds=     0
  NNHCO=     0 NNPyr=     0 NCTC=     0               EPep=         0.000000000
    EC=       131.095949671  ECS=         2.656884066   EG=         0.472808750
   EHC=         0.000433203  EAt=       -36.754028298  AtH=         2.306420954
 EPDDG=         0.000000000  ECC=       134.226075689 EAtT=        39.060449251
  EHyb=         0.000000000
 There are    42 symmetry adapted cartesian basis functions of A   symmetry.
 There are    41 symmetry adapted basis functions of A   symmetry.
    41 basis functions,   252 primitive gaussians,    42 cartesian basis functions
    20 alpha electrons       20 beta electrons
       nuclear repulsion energy       173.2865249405 Hartrees.
 IExCor=    0 DFT=F Ex=HF Corr=None ExCW=0 ScaHFX=  1.000000
 ScaDFX=  1.000000  1.000000  1.000000  1.000000 ScalE2=  1.000000  1.000000
 IRadAn=      5 IRanWt=     -1 IRanGd=            0 ICorTp=0 IEmpDi=251
 Integral buffers will be    131072 words long.
 Regular integral format.
 Two-electron integral symmetry is turned off.
 R6Disp:  PM7 Dispersion energy=       -0.0029916554 Hartrees.
 Nuclear repulsion after empirical dispersion term =      173.2835332851 Hartrees.
 Leave Link  301 at Sat Dec 13 11:37:36 2025, MaxMem=   536870912 cpu:               0.0 elap:               0.1
 (Enter D:\G16W\l302.exe)
 Do NDO integrals.
 NPDir=0 NMtPBC=     1 NCelOv=     1 NCel=       1 NClECP=     1 NCelD=      1
         NCelK=      1 NCelE2=     1 NClLst=     1 CellRange=     0.0.
 One-electron integrals computed using PRISM.
 NBasis=    41 RedAO= F EigKep=  0.00D+00  NBF=    41
 NBsUse=    41 1.00D-04 EigRej=  0.00D+00 NBFU=    41
 Leave Link  302 at Sat Dec 13 11:37:36 2025, MaxMem=   536870912 cpu:               0.0 elap:               0.1
 (Enter D:\G16W\l303.exe)
 DipDrv:  MaxL=1.
 Leave Link  303 at Sat Dec 13 11:37:37 2025, MaxMem=   536870912 cpu:               1.0 elap:               0.1
 (Enter D:\G16W\l401.exe)
 Nonelectrostatic core Hamiltonian diagonalized for initial guess.
 JPrj=0 DoOrth=F DoCkMO=F.
 Leave Link  401 at Sat Dec 13 11:37:37 2025, MaxMem=   536870912 cpu:               0.0 elap:               0.1
 (Enter D:\G16W\l502.exe)
 Keep J ints in memory in canonical form, NReq=1852953.
 FoFCou: FMM=F IPFlag=           0 FMFlag=           0 FMFlg1=           0
         NFxFlg=           0 DoJE=F BraDBF=F KetDBF=F FulRan=T
         wScrn=  0.000000 ICntrl=       600 IOpCl=  2 I1Cent=           0 NGrid=           0
         NMat0=    1 NMatS0=    107 NMatT0=    0 NMatD0=    1 NMtDS0=    0 NMtDT0=    0
 Symmetry not used in FoFCou.
 Two-electron integral symmetry not used.
 Closed shell SCF:
 Using DIIS extrapolation, IDIIS=  1040.
 Overlap will be assumed to be unity.
 NGot=   536870912 LenX=   536801502 LenY=   536799297
 Requested convergence on RMS density matrix=1.00D-08 within 128 cycles.
 Requested convergence on MAX density matrix=1.00D-06.
 Requested convergence on             energy=1.00D-06.
 No special actions if energy rises.

 Cycle   1  Pass 1  IDiag  1:
 E= 0.632142283765063    
 DIIS: error= 4.00D-02 at cycle   1 NSaved=   1.
 NSaved= 1 IEnMin= 1 EnMin= 0.632142283765063     IErMin= 1 ErrMin= 4.00D-02
 ErrMax= 4.00D-02  0.00D+00 EMaxC= 1.00D-01 BMatC= 1.09D-01 BMatP= 1.09D-01
 IDIUse=3 WtCom= 6.00D-01 WtEn= 4.00D-01
 Coeff-Com:  0.100D+01
 Coeff-En:   0.100D+01
 Coeff:      0.100D+01
 GapD=    2.000 DampG=2.000 DampE=0.500 DampFc=1.0000 IDamp=-1.
 RMSDP=1.72D-02 MaxDP=1.32D-01              OVMax= 0.00D+00

 Cycle   2  Pass 1  IDiag  1:
 E= 0.175021555567497     Delta-E=       -0.457120728198 Rises=F Damp=F
 DIIS: error= 1.85D-02 at cycle   2 NSaved=   2.
 NSaved= 2 IEnMin= 2 EnMin= 0.175021555567497     IErMin= 2 ErrMin= 1.85D-02
 ErrMax= 1.85D-02  0.00D+00 EMaxC= 1.00D-01 BMatC= 2.13D-02 BMatP= 1.09D-01
 IDIUse=3 WtCom= 8.15D-01 WtEn= 1.85D-01
 Coeff-Com: -0.439D+00 0.144D+01
 Coeff-En:   0.000D+00 0.100D+01
 Coeff:     -0.358D+00 0.136D+01
 RMSDP=1.10D-02 MaxDP=1.46D-01 DE=-4.57D-01 OVMax= 0.00D+00

 Cycle   3  Pass 1  IDiag  3:
 E= 0.556684511596757E-01 Delta-E=       -0.119353104408 Rises=F Damp=F
 DIIS: error= 7.09D-03 at cycle   3 NSaved=   3.
 NSaved= 3 IEnMin= 3 EnMin= 0.556684511596757E-01 IErMin= 3 ErrMin= 7.09D-03
 ErrMax= 7.09D-03  0.00D+00 EMaxC= 1.00D-01 BMatC= 3.13D-03 BMatP= 2.13D-02
 IDIUse=3 WtCom= 9.29D-01 WtEn= 7.09D-02
 Coeff-Com: -0.932D-02-0.398D+00 0.141D+01
 Coeff-En:   0.000D+00 0.000D+00 0.100D+01
 Coeff:     -0.866D-02-0.370D+00 0.138D+01
 Gap=     0.286 Goal=   None    Shift=    0.000
 RMSDP=5.14D-03 MaxDP=5.60D-02 DE=-1.19D-01 OVMax= 7.70D-02

 Cycle   4  Pass 1  IDiag  3:
 E= 0.371978680440748E-01 Delta-E=       -0.018470583116 Rises=F Damp=F
 DIIS: error= 1.74D-03 at cycle   4 NSaved=   4.
 NSaved= 4 IEnMin= 4 EnMin= 0.371978680440748E-01 IErMin= 4 ErrMin= 1.74D-03
 ErrMax= 1.74D-03  0.00D+00 EMaxC= 1.00D-01 BMatC= 2.23D-04 BMatP= 3.13D-03
 IDIUse=3 WtCom= 9.83D-01 WtEn= 1.74D-02
 Coeff-Com:  0.430D-01-0.107D+00-0.139D+00 0.120D+01
 Coeff-En:   0.000D+00 0.000D+00 0.000D+00 0.100D+01
 Coeff:      0.423D-01-0.105D+00-0.137D+00 0.120D+01
 Gap=     0.284 Goal=   None    Shift=    0.000
 RMSDP=1.36D-03 MaxDP=1.44D-02 DE=-1.85D-02 OVMax= 2.18D-02

 Cycle   5  Pass 1  IDiag  3:
 E= 0.359440431187750E-01 Delta-E=       -0.001253824925 Rises=F Damp=F
 DIIS: error= 4.53D-04 at cycle   5 NSaved=   5.
 NSaved= 5 IEnMin= 5 EnMin= 0.359440431187750E-01 IErMin= 5 ErrMin= 4.53D-04
 ErrMax= 4.53D-04  0.00D+00 EMaxC= 1.00D-01 BMatC= 1.92D-05 BMatP= 2.23D-04
 IDIUse=3 WtCom= 9.95D-01 WtEn= 4.53D-03
 Coeff-Com: -0.107D-01 0.457D-01-0.307D-02-0.525D+00 0.149D+01
 Coeff-En:   0.000D+00 0.000D+00 0.000D+00 0.000D+00 0.100D+01
 Coeff:     -0.106D-01 0.455D-01-0.306D-02-0.523D+00 0.149D+01
 Gap=     0.283 Goal=   None    Shift=    0.000
 RMSDP=4.20D-04 MaxDP=3.26D-03 DE=-1.25D-03 OVMax= 3.71D-03

 Cycle   6  Pass 1  IDiag  3:
 E= 0.358298831202433E-01 Delta-E=       -0.000114159999 Rises=F Damp=F
 DIIS: error= 1.09D-04 at cycle   6 NSaved=   6.
 NSaved= 6 IEnMin= 6 EnMin= 0.358298831202433E-01 IErMin= 6 ErrMin= 1.09D-04
 ErrMax= 1.09D-04  0.00D+00 EMaxC= 1.00D-01 BMatC= 8.12D-07 BMatP= 1.92D-05
 IDIUse=3 WtCom= 9.99D-01 WtEn= 1.09D-03
 Coeff-Com:  0.482D-03-0.402D-02-0.508D-02 0.102D+00-0.423D+00 0.133D+01
 Coeff-En:   0.000D+00 0.000D+00 0.000D+00 0.000D+00 0.000D+00 0.100D+01
 Coeff:      0.482D-03-0.401D-02-0.507D-02 0.102D+00-0.423D+00 0.133D+01
 Gap=     0.283 Goal=   None    Shift=    0.000
 RMSDP=8.26D-05 MaxDP=6.70D-04 DE=-1.14D-04 OVMax= 8.21D-04

 Cycle   7  Pass 1  IDiag  3:
 E= 0.358253403043989E-01 Delta-E=       -0.000004542816 Rises=F Damp=F
 DIIS: error= 3.77D-05 at cycle   7 NSaved=   7.
 NSaved= 7 IEnMin= 7 EnMin= 0.358253403043989E-01 IErMin= 7 ErrMin= 3.77D-05
 ErrMax= 3.77D-05  0.00D+00 EMaxC= 1.00D-01 BMatC= 4.94D-08 BMatP= 8.12D-07
 IDIUse=1 WtCom= 1.00D+00 WtEn= 0.00D+00
 Coeff-Com:  0.303D-03 0.129D-04 0.232D-03-0.104D-01 0.769D-01-0.410D+00
 Coeff-Com:  0.134D+01
 Coeff:      0.303D-03 0.129D-04 0.232D-03-0.104D-01 0.769D-01-0.410D+00
 Coeff:      0.134D+01
 Gap=     0.283 Goal=   None    Shift=    0.000
 RMSDP=2.06D-05 MaxDP=1.97D-04 DE=-4.54D-06 OVMax= 3.51D-04

 Cycle   8  Pass 1  IDiag  3:
 E= 0.358250395685786E-01 Delta-E=       -0.000000300736 Rises=F Damp=F
 DIIS: error= 9.21D-06 at cycle   8 NSaved=   8.
 NSaved= 8 IEnMin= 8 EnMin= 0.358250395685786E-01 IErMin= 8 ErrMin= 9.21D-06
 ErrMax= 9.21D-06  0.00D+00 EMaxC= 1.00D-01 BMatC= 3.99D-09 BMatP= 4.94D-08
 IDIUse=1 WtCom= 1.00D+00 WtEn= 0.00D+00
 Coeff-Com: -0.525D-04 0.140D-03-0.202D-03-0.155D-02-0.128D-02 0.600D-01
 Coeff-Com: -0.489D+00 0.143D+01
 Coeff:     -0.525D-04 0.140D-03-0.202D-03-0.155D-02-0.128D-02 0.600D-01
 Coeff:     -0.489D+00 0.143D+01
 Gap=     0.283 Goal=   None    Shift=    0.000
 RMSDP=7.09D-06 MaxDP=7.64D-05 DE=-3.01D-07 OVMax= 1.14D-04

 Cycle   9  Pass 1  IDiag  3:
 E= 0.358250134613627E-01 Delta-E=       -0.000000026107 Rises=F Damp=F
 DIIS: error= 1.21D-06 at cycle   9 NSaved=   9.
 NSaved= 9 IEnMin= 9 EnMin= 0.358250134613627E-01 IErMin= 9 ErrMin= 1.21D-06
 ErrMax= 1.21D-06  0.00D+00 EMaxC= 1.00D-01 BMatC= 1.13D-10 BMatP= 3.99D-09
 IDIUse=1 WtCom= 1.00D+00 WtEn= 0.00D+00
 Coeff-Com: -0.250D-05-0.259D-05 0.467D-04 0.467D-03-0.140D-02-0.523D-02
 Coeff-Com:  0.106D+00-0.445D+00 0.134D+01
 Coeff:     -0.250D-05-0.259D-05 0.467D-04 0.467D-03-0.140D-02-0.523D-02
 Coeff:      0.106D+00-0.445D+00 0.134D+01
 Gap=     0.283 Goal=   None    Shift=    0.000
 RMSDP=1.04D-06 MaxDP=9.63D-06 DE=-2.61D-08 OVMax= 1.75D-05

 Cycle  10  Pass 1  IDiag  3:
 E= 0.358250128601298E-01 Delta-E=       -0.000000000601 Rises=F Damp=F
 DIIS: error= 3.38D-07 at cycle  10 NSaved=  10.
 NSaved=10 IEnMin=10 EnMin= 0.358250128601298E-01 IErMin=10 ErrMin= 3.38D-07
 ErrMax= 3.38D-07  0.00D+00 EMaxC= 1.00D-01 BMatC= 4.76D-12 BMatP= 1.13D-10
 IDIUse=1 WtCom= 1.00D+00 WtEn= 0.00D+00
 Coeff-Com:  0.186D-05-0.168D-05-0.933D-05-0.142D-03 0.475D-03 0.798D-03
 Coeff-Com: -0.246D-01 0.118D+00-0.462D+00 0.137D+01
 Coeff:      0.186D-05-0.168D-05-0.933D-05-0.142D-03 0.475D-03 0.798D-03
 Coeff:     -0.246D-01 0.118D+00-0.462D+00 0.137D+01
 Gap=     0.283 Goal=   None    Shift=    0.000
 RMSDP=1.69D-07 MaxDP=1.30D-06 DE=-6.01D-10 OVMax= 1.96D-06

 Cycle  11  Pass 1  IDiag  3:
 E= 0.358250128384725E-01 Delta-E=       -0.000000000022 Rises=F Damp=F
 DIIS: error= 5.63D-08 at cycle  11 NSaved=  11.
 NSaved=11 IEnMin=11 EnMin= 0.358250128384725E-01 IErMin=11 ErrMin= 5.63D-08
 ErrMax= 5.63D-08  0.00D+00 EMaxC= 1.00D-01 BMatC= 1.98D-13 BMatP= 4.76D-12
 IDIUse=1 WtCom= 1.00D+00 WtEn= 0.00D+00
 Coeff-Com: -0.115D-06-0.481D-06 0.350D-05 0.116D-04-0.397D-04-0.216D-03
 Coeff-Com:  0.345D-02-0.167D-01 0.739D-01-0.365D+00 0.130D+01
 Coeff:     -0.115D-06-0.481D-06 0.350D-05 0.116D-04-0.397D-04-0.216D-03
 Coeff:      0.345D-02-0.167D-01 0.739D-01-0.365D+00 0.130D+01
 Gap=     0.283 Goal=   None    Shift=    0.000
 RMSDP=3.86D-08 MaxDP=2.70D-07 DE=-2.17D-11 OVMax= 4.40D-07

 Cycle  12  Pass 1  IDiag  3:
 E= 0.358250128344366E-01 Delta-E=       -0.000000000004 Rises=F Damp=F
 DIIS: error= 1.15D-08 at cycle  12 NSaved=  12.
 NSaved=12 IEnMin=12 EnMin= 0.358250128344366E-01 IErMin=12 ErrMin= 1.15D-08
 ErrMax= 1.15D-08  0.00D+00 EMaxC= 1.00D-01 BMatC= 7.82D-15 BMatP= 1.98D-13
 IDIUse=1 WtCom= 1.00D+00 WtEn= 0.00D+00
 Coeff-Com: -0.274D-07 0.172D-07-0.235D-06 0.288D-05-0.114D-04 0.347D-04
 Coeff-Com:  0.576D-04-0.229D-03-0.165D-02 0.382D-01-0.314D+00 0.128D+01
 Coeff:     -0.274D-07 0.172D-07-0.235D-06 0.288D-05-0.114D-04 0.347D-04
 Coeff:      0.576D-04-0.229D-03-0.165D-02 0.382D-01-0.314D+00 0.128D+01
 Gap=     0.283 Goal=   None    Shift=    0.000
 RMSDP=8.80D-09 MaxDP=1.08D-07 DE=-4.04D-12 OVMax= 1.27D-07

 Cycle  13  Pass 2  IDiag  1:
 SCF Done:  E(RPM7) =  0.358250128344E-01 A.U. after   13 cycles
            NFock= 12  Conv=0.88D-08     -V/T= 1.0006
 KE=-6.219664003517D+01 PE=-2.586560436905D+02 EE= 1.476049754534D+02
 Leave Link  502 at Sat Dec 13 11:37:37 2025, MaxMem=   536870912 cpu:               0.0 elap:               0.6
 (Enter D:\G16W\l801.exe)
 Range of M.O.s used for correlation:     1    41
 NBasis=    41 NAE=    20 NBE=    20 NFC=     0 NFV=     0
 NROrb=     41 NOA=    20 NOB=    20 NVA=    21 NVB=    21
 Leave Link  801 at Sat Dec 13 11:37:38 2025, MaxMem=   536870912 cpu:               1.0 elap:               0.1
 (Enter D:\G16W\l1101.exe)
 Using compressed storage, NAtomX=    18.
 Will process     19 centers per pass.
 R6Disp: Adding PM7 dispersion energy 1st derivatives to the gradient.
 Leave Link 1101 at Sat Dec 13 11:37:38 2025, MaxMem=   536870912 cpu:               0.0 elap:               0.2
 (Enter D:\G16W\l1102.exe)
 Symmetrizing basis deriv contribution to polar:
 IMax=3 JMax=2 DiffMx= 0.00D+00
 Leave Link 1102 at Sat Dec 13 11:37:38 2025, MaxMem=   536870912 cpu:               0.0 elap:               0.1
 (Enter D:\G16W\l1110.exe)
 Forming Gx(P) for the SCF density, NAtomX=    18.
 Integral derivatives from FoFJK, PRISM(SPDF).
 Do as many integral derivatives as possible in FoFJK.
 G2DrvN: MDV=     536810568.
 G2DrvN: will do    19 centers at a time, making    1 passes.
 Calling FoFCou, ICntrl=  3107 FMM=F I1Cent=   0 AccDes= 0.00D+00.
 FoFJK:  IHMeth=43 ICntrl=    3107 DoSepK=F KAlg= 0 I1Cent=           0 FoldK=F
 IRaf=         0 NMat=       1 IRICut=       1 DoRegI=T DoRafI=F ISym2E= 0 IDoP0=3 IntGTp=3.
 FoFCou: FMM=F IPFlag=           0 FMFlag=      100000 FMFlg1=           0
         NFxFlg=           0 DoJE=F BraDBF=F KetDBF=F FulRan=T
         wScrn=  0.000000 ICntrl=      3107 IOpCl=  0 I1Cent=           0 NGrid=           0
         NMat0=    1 NMatS0=      1 NMatT0=    0 NMatD0=    1 NMtDS0=    0 NMtDT0=    0
 Symmetry not used in FoFCou.
 End of G2Drv F.D. properties file   721 does not exist.
 End of G2Drv F.D. properties file   722 does not exist.
 End of G2Drv F.D. properties file   788 does not exist.
 Leave Link 1110 at Sat Dec 13 11:37:38 2025, MaxMem=   536870912 cpu:               0.0 elap:               0.1
 (Enter D:\G16W\l1002.exe)
 Minotr:  Closed shell wavefunction.
          IDoAtm=111111111111111111
          Direct CPHF calculation.
          Differentiating once with respect to electric field.
                with respect to dipole field.
          Differentiating once with respect to nuclear coordinates.
          Electric field/nuclear overlap derivatives assumed to be zero.
          Requested convergence is 1.0D-08 RMS, and 1.0D-07 maximum.
          NewPWx=T KeepS1=F KeepF1=F KeepIn=T MapXYZ=F SortEE=F KeepMc=T.
 Keep J ints in memory in canonical form, NReq=1854664.
 FoFCou: FMM=F IPFlag=           0 FMFlag=           0 FMFlg1=           0
         NFxFlg=           0 DoJE=F BraDBF=F KetDBF=F FulRan=T
         wScrn=  0.000000 ICntrl=       600 IOpCl=  2 I1Cent=           0 NGrid=           0
         NMat0=    1 NMatS0=    107 NMatT0=    0 NMatD0=    1 NMtDS0=    0 NMtDT0=    0
 Symmetry not used in FoFCou.
 Two-electron integral symmetry not used.
          MDV=     536870912 using IRadAn=       1.
          Solving linear equations separately, MaxMat=       0.
          There are    57 degrees of freedom in the 1st order CPHF.  IDoFFX=5 NUNeed=    57.
 LinEq1:  Iter=  0 NonCon=    57 RMS=4.08D-01 Max=7.76D+00 NDo=    57
 AX will form    57 AO Fock derivatives at one time.
 LinEq1:  Iter=  1 NonCon=    57 RMS=4.07D-02 Max=2.42D-01 NDo=    57
 LinEq1:  Iter=  2 NonCon=    57 RMS=6.68D-03 Max=5.00D-02 NDo=    57
 LinEq1:  Iter=  3 NonCon=    57 RMS=1.26D-03 Max=9.73D-03 NDo=    57
 LinEq1:  Iter=  4 NonCon=    57 RMS=2.23D-04 Max=1.41D-03 NDo=    57
 LinEq1:  Iter=  5 NonCon=    57 RMS=3.68D-05 Max=2.51D-04 NDo=    57
 LinEq1:  Iter=  6 NonCon=    57 RMS=4.88D-06 Max=3.40D-05 NDo=    57
 LinEq1:  Iter=  7 NonCon=    17 RMS=6.51D-07 Max=4.79D-06 NDo=    57
 LinEq1:  Iter=  8 NonCon=     3 RMS=1.05D-07 Max=7.76D-07 NDo=    57
 LinEq1:  Iter=  9 NonCon=     1 RMS=1.00D-08 Max=9.31D-08 NDo=    57
 LinEq1:  Iter= 10 NonCon=     0 RMS=1.02D-09 Max=4.97D-09 NDo=    57
 Linear equations converged to 1.000D-08 1.000D-07 after    10 iterations.
 FullF1:  Do perturbations      1 to       3.
 Isotropic polarizability for W=    0.000000       79.26 Bohr**3.
 End of Minotr F.D. properties file   721 does not exist.
 End of Minotr F.D. properties file   722 does not exist.
 End of Minotr F.D. properties file   788 does not exist.
 Leave Link 1002 at Sat Dec 13 11:37:39 2025, MaxMem=   536870912 cpu:               1.0 elap:               0.5
 (Enter D:\G16W\l601.exe)
 Copying SCF densities to generalized density rwf, IOpCl= 0 IROHF=0.

 **********************************************************************

            Population analysis using the SCF density.

 **********************************************************************

 Orbital symmetries:
       Occupied  (A) (A) (A) (A) (A) (A) (A) (A) (A) (A) (A) (A)
                 (A) (A) (A) (A) (A) (A) (A) (A)
       Virtual   (A) (A) (A) (A) (A) (A) (A) (A) (A) (A) (A) (A)
                 (A) (A) (A) (A) (A) (A) (A) (A) (A)
 The electronic state is 1-A.
 Alpha  occ. eigenvalues --   -1.36687  -0.95924  -0.95923  -0.94168  -0.86018
 Alpha  occ. eigenvalues --   -0.71787  -0.65320  -0.65319  -0.63254  -0.56161
 Alpha  occ. eigenvalues --   -0.56159  -0.53860  -0.53858  -0.52198  -0.51532
 Alpha  occ. eigenvalues --   -0.51530  -0.44940  -0.29330  -0.29085  -0.29085
 Alpha virt. eigenvalues --   -0.01194   0.05519   0.10423   0.10424   0.15267
 Alpha virt. eigenvalues --    0.15268   0.15490   0.15785   0.15970   0.15971
 Alpha virt. eigenvalues --    0.18123   0.18993   0.18993   0.19247   0.19248
 Alpha virt. eigenvalues --    0.19302   4.80114   4.80114   4.80333   4.81093
 Alpha virt. eigenvalues --    4.81093
          Condensed to atoms (all electrons):
               1          2          3          4          5          6
     1  C    4.311799   0.000000   0.000000   0.000000   0.000000   0.000000
     2  N    0.000000   5.246812   0.000000   0.000000   0.000000   0.000000
     3  C    0.000000   0.000000   4.311799   0.000000   0.000000   0.000000
     4  C    0.000000   0.000000   0.000000   4.311803   0.000000   0.000000
     5  H    0.000000   0.000000   0.000000   0.000000   0.833870   0.000000
     6  H    0.000000   0.000000   0.000000   0.000000   0.000000   0.854498
     7  H    0.000000   0.000000   0.000000   0.000000   0.000000   0.000000
     8  H    0.000000   0.000000   0.000000   0.000000   0.000000   0.000000
     9  H    0.000000   0.000000   0.000000   0.000000   0.000000   0.000000
    10  H    0.000000   0.000000   0.000000   0.000000   0.000000   0.000000
    11  H    0.000000   0.000000   0.000000   0.000000   0.000000   0.000000
    12  H    0.000000   0.000000   0.000000   0.000000   0.000000   0.000000
    13  H    0.000000   0.000000   0.000000   0.000000   0.000000   0.000000
    14  C    0.000000   0.000000   0.000000   0.000000   0.000000   0.000000
    15  I    0.000000   0.000000   0.000000   0.000000   0.000000   0.000000
    16  H    0.000000   0.000000   0.000000   0.000000   0.000000   0.000000
    17  H    0.000000   0.000000   0.000000   0.000000   0.000000   0.000000
    18  H    0.000000   0.000000   0.000000   0.000000   0.000000   0.000000
               7          8          9         10         11         12
     1  C    0.000000   0.000000   0.000000   0.000000   0.000000   0.000000
     2  N    0.000000   0.000000   0.000000   0.000000   0.000000   0.000000
     3  C    0.000000   0.000000   0.000000   0.000000   0.000000   0.000000
     4  C    0.000000   0.000000   0.000000   0.000000   0.000000   0.000000
     5  H    0.000000   0.000000   0.000000   0.000000   0.000000   0.000000
     6  H    0.000000   0.000000   0.000000   0.000000   0.000000   0.000000
     7  H    0.833873   0.000000   0.000000   0.000000   0.000000   0.000000
     8  H    0.000000   0.833866   0.000000   0.000000   0.000000   0.000000
     9  H    0.000000   0.000000   0.833879   0.000000   0.000000   0.000000
    10  H    0.000000   0.000000   0.000000   0.854499   0.000000   0.000000
    11  H    0.000000   0.000000   0.000000   0.000000   0.854501   0.000000
    12  H    0.000000   0.000000   0.000000   0.000000   0.000000   0.833878
    13  H    0.000000   0.000000   0.000000   0.000000   0.000000   0.000000
    14  C    0.000000   0.000000   0.000000   0.000000   0.000000   0.000000
    15  I    0.000000   0.000000   0.000000   0.000000   0.000000   0.000000
    16  H    0.000000   0.000000   0.000000   0.000000   0.000000   0.000000
    17  H    0.000000   0.000000   0.000000   0.000000   0.000000   0.000000
    18  H    0.000000   0.000000   0.000000   0.000000   0.000000   0.000000
              13         14         15         16         17         18
     1  C    0.000000   0.000000   0.000000   0.000000   0.000000   0.000000
     2  N    0.000000   0.000000   0.000000   0.000000   0.000000   0.000000
     3  C    0.000000   0.000000   0.000000   0.000000   0.000000   0.000000
     4  C    0.000000   0.000000   0.000000   0.000000   0.000000   0.000000
     5  H    0.000000   0.000000   0.000000   0.000000   0.000000   0.000000
     6  H    0.000000   0.000000   0.000000   0.000000   0.000000   0.000000
     7  H    0.000000   0.000000   0.000000   0.000000   0.000000   0.000000
     8  H    0.000000   0.000000   0.000000   0.000000   0.000000   0.000000
     9  H    0.000000   0.000000   0.000000   0.000000   0.000000   0.000000
    10  H    0.000000   0.000000   0.000000   0.000000   0.000000   0.000000
    11  H    0.000000   0.000000   0.000000   0.000000   0.000000   0.000000
    12  H    0.000000   0.000000   0.000000   0.000000   0.000000   0.000000
    13  H    0.833876   0.000000   0.000000   0.000000   0.000000   0.000000
    14  C    0.000000   4.046359   0.000000   0.000000   0.000000   0.000000
    15  I    0.000000   0.000000   7.651553   0.000000   0.000000   0.000000
    16  H    0.000000   0.000000   0.000000   0.851050   0.000000   0.000000
    17  H    0.000000   0.000000   0.000000   0.000000   0.851048   0.000000
    18  H    0.000000   0.000000   0.000000   0.000000   0.000000   0.851037
 Mulliken charges:
               1
     1  C   -0.311799
     2  N   -0.246812
     3  C   -0.311799
     4  C   -0.311803
     5  H    0.166130
     6  H    0.145502
     7  H    0.166127
     8  H    0.166134
     9  H    0.166121
    10  H    0.145501
    11  H    0.145499
    12  H    0.166122
    13  H    0.166124
    14  C   -0.046359
    15  I   -0.651553
    16  H    0.148950
    17  H    0.148952
    18  H    0.148963
 Sum of Mulliken charges =   0.00000
 Mulliken charges with hydrogens summed into heavy atoms:
               1
     1  C    0.165961
     2  N   -0.246812
     3  C    0.165957
     4  C    0.165942
    14  C    0.400505
    15  I   -0.651553
 APT charges:
               1
     1  C   -0.552899
     2  N   -0.500427
     3  C   -0.552864
     4  C   -0.552912
     5  H    0.193638
     6  H    0.164500
     7  H    0.193647
     8  H    0.193639
     9  H    0.193633
    10  H    0.164480
    11  H    0.164508
    12  H    0.193665
    13  H    0.193657
    14  C    1.660899
    15  I   -1.213100
    16  H    0.018677
    17  H    0.018707
    18  H    0.018546
 Sum of APT charges =  -0.00001
 APT charges with hydrogens summed into heavy atoms:
               1
     1  C   -0.001114
     2  N   -0.500427
     3  C   -0.001112
     4  C   -0.001082
    14  C    1.716828
    15  I   -1.213100
 Charge=              0.0000 electrons
 Dipole moment (field-independent basis, Debye):
    X=             12.5823    Y=              0.0000    Z=              0.0002  Tot=             12.5823
 N-N= 1.732835332851D+02 E-N=-2.586560438443D+02  KE=-6.219664003517D+01
  Exact polarizability: 163.669   0.001  38.009   0.007   0.000  36.095
 Approx polarizability:  92.205   0.002  26.666   0.004   0.000  25.733
 Leave Link  601 at Sat Dec 13 11:37:39 2025, MaxMem=   536870912 cpu:               0.0 elap:               0.1
 (Enter D:\G16W\l701.exe)
 ... and contract with generalized density number  0.
 Compute integral second derivatives.
 R6Disp: Adding PM7 dispersion energy 2nd derivatives to the Hessian.
 Leave Link  701 at Sat Dec 13 11:37:39 2025, MaxMem=   536870912 cpu:               0.0 elap:               0.2
 (Enter D:\G16W\l702.exe)
 L702 exits ... SP integral derivatives will be done elsewhere.
 Leave Link  702 at Sat Dec 13 11:37:39 2025, MaxMem=   536870912 cpu:               0.0 elap:               0.1
 (Enter D:\G16W\l703.exe)
 Integral derivatives from FoFJK, PRISM(SPDF).
 Compute integral second derivatives, UseDBF=F ICtDFT=           0.
 Calling FoFJK, ICntrl=    100127 FMM=F ISym2X=0 I1Cent= 0 IOpClX= 0 NMat=1 NMatS=1 NMatT=0.
 FoFJK:  IHMeth=43 ICntrl=  100127 DoSepK=F KAlg= 0 I1Cent=           0 FoldK=F
 IRaf=         0 NMat=       1 IRICut=       1 DoRegI=T DoRafI=F ISym2E= 0 IDoP0=3 IntGTp=3.
 FoFCou: FMM=F IPFlag=           0 FMFlag=      100000 FMFlg1=         800
         NFxFlg=           0 DoJE=F BraDBF=F KetDBF=F FulRan=T
         wScrn=  0.000000 ICntrl=    100127 IOpCl=  0 I1Cent=           0 NGrid=           0
         NMat0=    1 NMatS0=      1 NMatT0=    0 NMatD0=    1 NMtDS0=    0 NMtDT0=    0
 Symmetry not used in FoFCou.
 Leave Link  703 at Sat Dec 13 11:37:40 2025, MaxMem=   536870912 cpu:               1.0 elap:               0.1
 (Enter D:\G16W\l716.exe)
 Dipole        = 4.95026658D+00 1.68791419D-06 7.25395487D-05
 Polarizability= 1.63668827D+02 1.25714944D-03 3.80085967D+01
                 6.51291948D-03 2.75004577D-04 3.60947892D+01
 HyperPolar    = 4.78817539D+03 4.91021875D-02 6.57354677D+01
                -4.80596914D-01 5.33899741D-01-1.42216850D-04
                 3.98819214D-01 6.38237738D+01 3.43879730D-01
                -2.65507644D-01
 ***** Axes restored to original set *****
 -------------------------------------------------------------------
 Center     Atomic                   Forces (Hartrees/Bohr)
 Number     Number              X              Y              Z
 -------------------------------------------------------------------
      1        6          -0.000015571    0.000029160    0.000018029
      2        7           0.010991531    0.000000238   -0.000017437
      3        6          -0.000020219   -0.000028842    0.000006860
      4        6           0.000010033   -0.000011951   -0.000024133
      5        1           0.000000727    0.000003063    0.000003000
      6        1           0.000001175   -0.000000824    0.000001667
      7        1          -0.000002594   -0.000004560    0.000010029
      8        1           0.000001530   -0.000000378    0.000002110
      9        1          -0.000000262   -0.000007540   -0.000000991
     10        1           0.000002691    0.000000211    0.000001297
     11        1          -0.000005676    0.000006579    0.000005509
     12        1          -0.000013767    0.000000094   -0.000008668
     13        1          -0.000006554    0.000009983   -0.000009715
     14        6          -0.011000182   -0.000001904    0.000022151
     15       53           0.000092641    0.000000611   -0.000003060
     16        1          -0.000019814    0.000004005    0.000004972
     17        1           0.000000917    0.000009985   -0.000007777
     18        1          -0.000016606   -0.000007931   -0.000003843
 -------------------------------------------------------------------
 Cartesian Forces:  Max     0.011000182 RMS     0.002116218
 FormGI is forming the generalized inverse of G from B-inverse, IUseBI=4.
 Leave Link  716 at Sat Dec 13 11:37:40 2025, MaxMem=   536870912 cpu:               0.0 elap:               0.2
 (Enter D:\G16W\l103.exe)

 GradGradGradGradGradGradGradGradGradGradGradGradGradGradGradGradGradGrad
 Berny optimization.
 Red2BG is reusing G-inverse.
 Internal  Forces:  Max     0.010943042 RMS     0.001166612
 Search for a saddle point.
 Step number   1 out of a maximum of   98
 All quantities printed in internal units (Hartrees-Bohrs-Radians)
 Swapping is turned off.
 Second derivative matrix not updated -- analytic derivatives used.
 ITU=  0
     Eigenvalues ---   -0.04997   0.00072   0.00146   0.00163   0.00163
     Eigenvalues ---    0.02930   0.02931   0.03612   0.03678   0.03679
     Eigenvalues ---    0.03808   0.04001   0.04001   0.04026   0.04026
     Eigenvalues ---    0.04176   0.05512   0.05518   0.08804   0.10804
     Eigenvalues ---    0.10806   0.11198   0.11202   0.11685   0.11686
     Eigenvalues ---    0.12042   0.14375   0.14899   0.14900   0.15403
     Eigenvalues ---    0.15456   0.15456   0.19982   0.24661   0.24662
     Eigenvalues ---    0.25406   0.25525   0.25525   0.25639   0.25640
     Eigenvalues ---    0.25687   0.27025   0.27025   0.27542   0.28175
     Eigenvalues ---    0.41537   0.41539   0.51141
 Eigenvectors required to have negative eigenvalues:
                          R7        R14       A25       A28       A27
   1                    0.64701  -0.56373  -0.20687   0.20685  -0.20683
                          A30       A29       A26       A33       A31
   1                    0.20680   0.20677  -0.20672   0.03086   0.03084
 RFO step:  Lambda0=9.932964962D-04 Lambda=-6.56611722D-04.
 Linear search not attempted -- option 19 set.
 Iteration  1 RMS(Cart)=  0.01156642 RMS(Int)=  0.00045696
 Iteration  2 RMS(Cart)=  0.00025048 RMS(Int)=  0.00038646
 Iteration  3 RMS(Cart)=  0.00000028 RMS(Int)=  0.00038646
 ITry= 1 IFail=0 DXMaxC= 8.12D-02 DCOld= 1.00D+10 DXMaxT= 3.00D-01 DXLimC= 3.00D+00 Rises=F
 Variable       Old X    -DE/DX   Delta X   Delta X   Delta X     New X
                                 (Linear)    (Quad)   (Total)
    R1        2.81042   0.00003   0.00000  -0.00148  -0.00148   2.80894
    R2        2.08658   0.00000   0.00000   0.00086   0.00086   2.08744
    R3        2.07988   0.00000   0.00000   0.00056   0.00056   2.08045
    R4        2.08653   0.00001   0.00000   0.00091   0.00091   2.08744
    R5        2.81042   0.00003   0.00000  -0.00149  -0.00149   2.80894
    R6        2.81044   0.00003   0.00000  -0.00151  -0.00151   2.80894
    R7        3.59048   0.01094   0.00000  -0.02999  -0.02999   3.56049
    R8        2.08657   0.00000   0.00000   0.00087   0.00087   2.08744
    R9        2.08656   0.00001   0.00000   0.00088   0.00088   2.08744
   R10        2.07987   0.00000   0.00000   0.00057   0.00057   2.08045
   R11        2.07993  -0.00001   0.00000   0.00052   0.00052   2.08045
   R12        2.08653   0.00001   0.00000   0.00091   0.00091   2.08744
   R13        2.08651   0.00001   0.00000   0.00093   0.00093   2.08744
   R14        4.89621  -0.00009   0.00000   0.13271   0.13271   5.02892
   R15        2.04905   0.00000   0.00000  -0.00084  -0.00084   2.04821
   R16        2.04904   0.00000   0.00000  -0.00083  -0.00083   2.04821
   R17        2.04906  -0.00001   0.00000  -0.00085  -0.00085   2.04821
    A1        1.92025   0.00001   0.00000   0.00198   0.00198   1.92223
    A2        1.97582   0.00000   0.00000  -0.00242  -0.00242   1.97339
    A3        1.92033   0.00000   0.00000   0.00191   0.00191   1.92224
    A4        1.88533   0.00000   0.00000  -0.00051  -0.00051   1.88482
    A5        1.87349   0.00000   0.00000  -0.00041  -0.00042   1.87307
    A6        1.88536   0.00000   0.00000  -0.00054  -0.00054   1.88482
    A7        1.92292   0.00000   0.00000   0.00516   0.00511   1.92803
    A8        1.92283   0.00001   0.00000   0.00525   0.00520   1.92803
    A9        1.89824  -0.00001   0.00000  -0.00536  -0.00534   1.89289
   A10        1.92289   0.00001   0.00000   0.00519   0.00514   1.92803
   A11        1.89823   0.00000   0.00000  -0.00536  -0.00534   1.89290
   A12        1.89818  -0.00001   0.00000  -0.00530  -0.00528   1.89290
   A13        1.92028   0.00000   0.00000   0.00195   0.00195   1.92223
   A14        1.92026   0.00001   0.00000   0.00198   0.00198   1.92224
   A15        1.97583   0.00000   0.00000  -0.00244  -0.00244   1.97339
   A16        1.87350   0.00000   0.00000  -0.00043  -0.00043   1.87307
   A17        1.88536   0.00000   0.00000  -0.00054  -0.00054   1.88482
   A18        1.88534   0.00000   0.00000  -0.00052  -0.00052   1.88482
   A19        1.97582   0.00000   0.00000  -0.00243  -0.00243   1.97339
   A20        1.92029   0.00000   0.00000   0.00194   0.00194   1.92223
   A21        1.92029   0.00001   0.00000   0.00195   0.00195   1.92224
   A22        1.88518   0.00001   0.00000  -0.00036  -0.00036   1.88482
   A23        1.88536   0.00000   0.00000  -0.00054  -0.00054   1.88482
   A24        1.87364  -0.00001   0.00000  -0.00057  -0.00057   1.87307
   A25        1.61380   0.00003   0.00000   0.03552   0.03524   1.64904
   A26        1.61422  -0.00001   0.00000   0.03510   0.03483   1.64905
   A27        1.61393   0.00002   0.00000   0.03539   0.03511   1.64904
   A28        1.52755  -0.00001   0.00000  -0.03528  -0.03501   1.49254
   A29        1.52765  -0.00001   0.00000  -0.03536  -0.03509   1.49256
   A30        1.52764  -0.00002   0.00000  -0.03536  -0.03509   1.49256
   A31        2.09102   0.00000   0.00000  -0.00512  -0.00717   2.08384
   A32        2.09120   0.00000   0.00000  -0.00530  -0.00736   2.08384
   A33        2.09129  -0.00001   0.00000  -0.00539  -0.00744   2.08385
   A34        3.14134   0.00002   0.00000   0.00023   0.00023   3.14157
   A35        3.14142   0.00001   0.00000   0.00017   0.00017   3.14159
    D1       -3.10934   0.00001   0.00000   0.00579   0.00579  -3.10354
    D2        1.04870  -0.00001   0.00000  -0.00757  -0.00758   1.04112
    D3       -1.03026   0.00000   0.00000  -0.00096  -0.00096  -1.03122
    D4        1.06264   0.00001   0.00000   0.00667   0.00668   1.06931
    D5       -1.06251  -0.00001   0.00000  -0.00669  -0.00670  -1.06921
    D6       -3.14147   0.00000   0.00000  -0.00007  -0.00007  -3.14154
    D7       -1.04867   0.00001   0.00000   0.00764   0.00765  -1.04102
    D8        3.10937  -0.00001   0.00000  -0.00572  -0.00573   3.10364
    D9        1.03041   0.00000   0.00000   0.00090   0.00090   1.03131
   D10        1.04896  -0.00001   0.00000  -0.00778  -0.00779   1.04117
   D11        3.10962  -0.00001   0.00000  -0.00591  -0.00592   3.10370
   D12       -1.06233  -0.00001   0.00000  -0.00682  -0.00683  -1.06916
   D13       -3.10912   0.00001   0.00000   0.00562   0.00563  -3.10349
   D14       -1.04845   0.00001   0.00000   0.00748   0.00749  -1.04096
   D15        1.06278   0.00001   0.00000   0.00658   0.00659   1.06937
   D16       -1.03012   0.00000   0.00000  -0.00103  -0.00103  -1.03115
   D17        1.03054   0.00000   0.00000   0.00083   0.00083   1.03137
   D18       -3.14141   0.00000   0.00000  -0.00007  -0.00007  -3.14148
   D19        1.06282   0.00000   0.00000   0.00652   0.00652   1.06935
   D20       -3.10932   0.00001   0.00000   0.00580   0.00580  -3.10351
   D21       -1.04846   0.00001   0.00000   0.00746   0.00747  -1.04098
   D22       -1.06234  -0.00001   0.00000  -0.00683  -0.00683  -1.06918
   D23        1.04870   0.00000   0.00000  -0.00754  -0.00755   1.04115
   D24        3.10956  -0.00001   0.00000  -0.00588  -0.00588   3.10368
   D25       -3.14137   0.00000   0.00000  -0.00014  -0.00014  -3.14151
   D26       -1.03032   0.00000   0.00000  -0.00086  -0.00086  -1.03118
   D27        1.03054   0.00000   0.00000   0.00081   0.00081   1.03135
   D28       -1.04687   0.00000   0.00000  -0.00012  -0.00012  -1.04699
   D29       -3.14111   0.00000   0.00000  -0.00027  -0.00028  -3.14139
   D30        1.04754   0.00001   0.00000  -0.00015  -0.00015   1.04740
   D31        1.04760   0.00000   0.00000  -0.00019  -0.00020   1.04740
   D32       -1.04665  -0.00001   0.00000  -0.00035  -0.00035  -1.04699
   D33       -3.14118   0.00000   0.00000  -0.00022  -0.00022  -3.14140
   D34       -3.14119   0.00000   0.00000  -0.00019  -0.00020  -3.14139
   D35        1.04775  -0.00001   0.00000  -0.00035  -0.00035   1.04740
   D36       -1.04678   0.00000   0.00000  -0.00022  -0.00022  -1.04700
         Item               Value     Threshold  Converged?
 Maximum Force            0.010943     0.000450     NO 
 RMS     Force            0.001167     0.000300     NO 
 Maximum Displacement     0.081222     0.001800     NO 
 RMS     Displacement     0.011565     0.001200     NO 
 Predicted change in Energy= 1.755025D-04
 Lowest energy point so far.  Saving SCF results.
 GradGradGradGradGradGradGradGradGradGradGradGradGradGradGradGradGradGrad

 Leave Link  103 at Sat Dec 13 11:37:40 2025, MaxMem=   536870912 cpu:               0.0 elap:               0.1
 (Enter D:\G16W\l202.exe)
                          Input orientation:                          
 ---------------------------------------------------------------------
 Center     Atomic      Atomic             Coordinates (Angstroms)
 Number     Number       Type             X           Y           Z
 ---------------------------------------------------------------------
      1          6           0        2.995925    0.985566    1.008416
      2          7           0        2.525528    0.000006    0.000021
      3          6           0        2.996082   -1.366000    0.349406
      4          6           0        2.996204    0.380504   -1.357605
      5          1           0        2.610848    1.991888    0.765043
      6          1           0        4.093276    1.047522    1.071807
      7          1           0        2.610849    0.719218    2.008902
      8          1           0        2.610871   -1.658471    1.342518
      9          1           0        2.611258   -2.099323   -0.381583
     10          1           0        4.093443   -1.451700    0.371563
     11          1           0        4.093573    0.404349   -1.442752
     12          1           0        2.611220   -0.333392   -2.107498
     13          1           0        2.611248    1.380154   -1.627245
     14          6           0        0.641397   -0.000062   -0.000176
     15         53           0       -2.019793   -0.000166   -0.000399
     16          1           0        0.556584   -0.291434    1.040339
     17          1           0        0.556780   -0.755499   -0.772779
     18          1           0        0.556665    1.046741   -0.268105
 ---------------------------------------------------------------------
                    Distance matrix (angstroms):
                    1          2          3          4          5
     1  C    0.000000
     2  N    1.486426   0.000000
     3  C    2.442162   1.486426   0.000000
     4  C    2.442162   1.486426   2.442163   0.000000
     5  H    1.104626   2.135447   3.405374   2.692711   0.000000
     6  H    1.100925   2.168835   2.747869   2.747822   1.784244
     7  H    1.104625   2.135451   2.692669   3.405378   1.779572
     8  H    2.692735   2.135446   1.104626   3.405373   3.695754
     9  H    3.405379   2.135451   1.104625   2.692646   4.248854
    10  H    2.747798   2.168836   1.100925   2.747895   3.769776
    11  H    2.747884   2.168836   2.747808   1.100926   3.097275
    12  H    3.405373   2.135446   2.692726   1.104626   3.695730
    13  H    2.692654   2.135451   3.405379   1.104625   2.469263
    14  C    2.744544   1.884131   2.744546   2.744551   2.903819
    15  I    5.210259   4.545321   5.210265   5.210292   5.098727
    16  H    2.753567   2.245872   2.753766   3.486170   3.083723
    17  H    3.486171   2.245880   2.753580   2.753782   3.759286
    18  H    2.753768   2.245879   3.486172   2.753586   2.486034
                    6          7          8          9         10
     6  H    0.000000
     7  H    1.784242   0.000000
     8  H    3.097290   2.469305   0.000000
     9  H    3.769795   3.695753   1.779572   0.000000
    10  H    2.595467   3.097071   1.784244   1.784241   0.000000
    11  H    2.595511   3.769818   3.769795   3.097048   2.595506
    12  H    3.769800   4.248851   3.695733   2.469270   3.097311
    13  H    3.097085   3.695727   4.248851   3.695732   3.769818
    14  C    3.763249   2.903876   2.903786   2.903915   3.763251
    15  I    6.294194   5.098788   5.098671   5.098862   6.294200
    16  H    3.781796   2.485867   2.486000   3.084155   3.781910
    17  H    4.377235   3.759220   3.083688   2.485915   3.781824
    18  H    3.781929   3.084105   3.759261   3.759249   4.377234
                   11         12         13         14         15
    11  H    0.000000
    12  H    1.784242   0.000000
    13  H    1.784242   1.779573   0.000000
    14  C    3.763255   2.903811   2.903905   0.000000
    15  I    6.294224   5.098743   5.098868   2.661190   0.000000
    16  H    4.377230   3.759277   3.759236   1.083865   2.793867
    17  H    3.781933   2.486035   3.084148   1.083864   2.793891
    18  H    3.781823   3.083720   2.485909   1.083864   2.793888
                   16         17         18
    16  H    0.000000
    17  H    1.871564   0.000000
    18  H    1.871560   1.871568   0.000000
 Stoichiometry    C4H12IN
 Framework group  C1[X(C4H12IN)]
 Deg. of freedom    48
 Full point group                 C1      NOp   1
 RotChk:  IX=0 Diff= 1.89D-01
 Largest Abelian subgroup         C1      NOp   1
 Largest concise Abelian subgroup C1      NOp   1
                         Standard orientation:                         
 ---------------------------------------------------------------------
 Center     Atomic      Atomic             Coordinates (Angstroms)
 Number     Number       Type             X           Y           Z
 ---------------------------------------------------------------------
      1          6           0        3.016639   -0.844398   -1.129184
      2          7           0        2.546112    0.000000    0.000001
      3          6           0        3.016646    1.400098   -0.166690
      4          6           0        3.016677   -0.555695    1.295853
      5          1           0        2.631578   -1.873994   -1.020282
      6          1           0        4.113998   -0.897452   -1.200066
      7          1           0        2.631645   -0.448819   -2.085999
      8          1           0        2.631517    1.820603   -1.112761
      9          1           0        2.631727    2.030927    0.654338
     10          1           0        4.114006    1.487995   -0.177281
     11          1           0        4.114039   -0.590501    1.377231
     12          1           0        2.631596    0.053390    2.133067
     13          1           0        2.631734   -1.582130    1.431672
     14          6           0        0.661981   -0.000006    0.000022
     15         53           0       -1.999209    0.000000    0.000000
     16          1           0        0.577253    0.425651   -0.993154
     17          1           0        0.577264    0.647281    0.865241
     18          1           0        0.577263   -1.072952    0.127974
 ---------------------------------------------------------------------
 Rotational constants (GHZ):           4.6187042           0.4793758           0.4793758
 Leave Link  202 at Sat Dec 13 11:37:40 2025, MaxMem=   536870912 cpu:               0.0 elap:               0.1
 (Enter D:\G16W\l301.exe)
 Standard basis: VSTO-6G (5D, 7F)
 Ernie: Thresh=  0.10000D-02 Tol=  0.10000D-05 Strict=F.
 EHB=         0.000000000 Number of Hydrogen Bonds=     0
  NNHCO=     0 NNPyr=     0 NCTC=     0               EPep=         0.000000000
    EC=       130.849832194  ECS=         2.648663799   EG=         0.472920024
   EHC=         0.000432065  EAt=       -36.754028298  AtH=         2.306420954
 EPDDG=         0.000000000  ECC=       133.971848081 EAtT=        39.060449251
  EHyb=         0.000000000
 There are    42 symmetry adapted cartesian basis functions of A   symmetry.
 There are    41 symmetry adapted basis functions of A   symmetry.
    41 basis functions,   252 primitive gaussians,    42 cartesian basis functions
    20 alpha electrons       20 beta electrons
       nuclear repulsion energy       173.0322973323 Hartrees.
 IExCor=    0 DFT=F Ex=HF Corr=None ExCW=0 ScaHFX=  1.000000
 ScaDFX=  1.000000  1.000000  1.000000  1.000000 ScalE2=  1.000000  1.000000
 IRadAn=      5 IRanWt=     -1 IRanGd=            0 ICorTp=0 IEmpDi=251
 Integral buffers will be    131072 words long.
 Regular integral format.
 Two-electron integral symmetry is turned off.
 R6Disp:  PM7 Dispersion energy=       -0.0029558064 Hartrees.
 Nuclear repulsion after empirical dispersion term =      173.0293415259 Hartrees.
 Leave Link  301 at Sat Dec 13 11:37:40 2025, MaxMem=   536870912 cpu:               0.0 elap:               0.1
 (Enter D:\G16W\l302.exe)
 Do NDO integrals.
 NPDir=0 NMtPBC=     1 NCelOv=     1 NCel=       1 NClECP=     1 NCelD=      1
         NCelK=      1 NCelE2=     1 NClLst=     1 CellRange=     0.0.
 One-electron integrals computed using PRISM.
 NBasis=    41 RedAO= F EigKep=  0.00D+00  NBF=    41
 NBsUse=    41 1.00D-04 EigRej=  0.00D+00 NBFU=    41
 Leave Link  302 at Sat Dec 13 11:37:40 2025, MaxMem=   536870912 cpu:               0.0 elap:               0.2
 (Enter D:\G16W\l303.exe)
 DipDrv:  MaxL=1.
 Leave Link  303 at Sat Dec 13 11:37:41 2025, MaxMem=   536870912 cpu:               1.0 elap:               0.1
 (Enter D:\G16W\l401.exe)
 Initial guess from the checkpoint file:  ".\Gau-7280.chk"
 B after Tr=     0.000000    0.000000    0.000000
         Rot=    0.997762   -0.066863    0.000009   -0.000003 Ang=  -7.67 deg.
 Guess basis will be translated and rotated to current coordinates.
 JPrj=0 DoOrth=T DoCkMO=T.
 Leave Link  401 at Sat Dec 13 11:37:41 2025, MaxMem=   536870912 cpu:               0.0 elap:               0.1
 (Enter D:\G16W\l502.exe)
 Keep J ints in memory in canonical form, NReq=1852953.
 FoFCou: FMM=F IPFlag=           0 FMFlag=           0 FMFlg1=           0
         NFxFlg=           0 DoJE=F BraDBF=F KetDBF=F FulRan=T
         wScrn=  0.000000 ICntrl=       600 IOpCl=  2 I1Cent=           0 NGrid=           0
         NMat0=    1 NMatS0=    107 NMatT0=    0 NMatD0=    1 NMtDS0=    0 NMtDT0=    0
 Symmetry not used in FoFCou.
 Two-electron integral symmetry not used.
 Closed shell SCF:
 Using DIIS extrapolation, IDIIS=  1040.
 Overlap will be assumed to be unity.
 NGot=   536870912 LenX=   536801502 LenY=   536799297
 Requested convergence on RMS density matrix=1.00D-08 within 128 cycles.
 Requested convergence on MAX density matrix=1.00D-06.
 Requested convergence on             energy=1.00D-06.
 No special actions if energy rises.

 Cycle   1  Pass 1  IDiag  1:
 E= 0.374414735440780E-01
 DIIS: error= 4.23D-03 at cycle   1 NSaved=   1.
 NSaved= 1 IEnMin= 1 EnMin= 0.374414735440780E-01 IErMin= 1 ErrMin= 4.23D-03
 ErrMax= 4.23D-03  0.00D+00 EMaxC= 1.00D-01 BMatC= 3.90D-04 BMatP= 3.90D-04
 IDIUse=3 WtCom= 9.58D-01 WtEn= 4.23D-02
 Coeff-Com:  0.100D+01
 Coeff-En:   0.100D+01
 Coeff:      0.100D+01
 GapD=    2.000 DampG=2.000 DampE=1.000 DampFc=2.0000 IDamp=-1.
 RMSDP=9.89D-04 MaxDP=1.23D-02              OVMax= 0.00D+00

 Cycle   2  Pass 1  IDiag  3:
 E= 0.362835270460664E-01 Delta-E=       -0.001157946498 Rises=F Damp=F
 DIIS: error= 1.61D-03 at cycle   2 NSaved=   2.
 NSaved= 2 IEnMin= 2 EnMin= 0.362835270460664E-01 IErMin= 2 ErrMin= 1.61D-03
 ErrMax= 1.61D-03  0.00D+00 EMaxC= 1.00D-01 BMatC= 4.47D-05 BMatP= 3.90D-04
 IDIUse=3 WtCom= 9.84D-01 WtEn= 1.61D-02
 Coeff-Com: -0.271D+00 0.127D+01
 Coeff-En:   0.000D+00 0.100D+01
 Coeff:     -0.267D+00 0.127D+01
 Gap=     0.270 Goal=   None    Shift=    0.000
 RMSDP=5.69D-04 MaxDP=8.07D-03 DE=-1.16D-03 OVMax= 1.17D-02

 Cycle   3  Pass 1  IDiag  3:
 E= 0.360354013007225E-01 Delta-E=       -0.000248125745 Rises=F Damp=F
 DIIS: error= 3.91D-04 at cycle   3 NSaved=   3.
 NSaved= 3 IEnMin= 3 EnMin= 0.360354013007225E-01 IErMin= 3 ErrMin= 3.91D-04
 ErrMax= 3.91D-04  0.00D+00 EMaxC= 1.00D-01 BMatC= 4.45D-06 BMatP= 4.47D-05
 IDIUse=3 WtCom= 9.96D-01 WtEn= 3.91D-03
 Coeff-Com:  0.835D-02-0.334D+00 0.133D+01
 Coeff-En:   0.000D+00 0.000D+00 0.100D+01
 Coeff:      0.832D-02-0.333D+00 0.132D+01
 Gap=     0.269 Goal=   None    Shift=    0.000
 RMSDP=2.60D-04 MaxDP=4.00D-03 DE=-2.48D-04 OVMax= 5.69D-03

 Cycle   4  Pass 1  IDiag  3:
 E= 0.359994700420430E-01 Delta-E=       -0.000035931259 Rises=F Damp=F
 DIIS: error= 1.25D-04 at cycle   4 NSaved=   4.
 NSaved= 4 IEnMin= 4 EnMin= 0.359994700420430E-01 IErMin= 4 ErrMin= 1.25D-04
 ErrMax= 1.25D-04  0.00D+00 EMaxC= 1.00D-01 BMatC= 3.47D-07 BMatP= 4.45D-06
 IDIUse=3 WtCom= 9.99D-01 WtEn= 1.25D-03
 Coeff-Com:  0.778D-02 0.187D-01-0.394D+00 0.137D+01
 Coeff-En:   0.000D+00 0.000D+00 0.000D+00 0.100D+01
 Coeff:      0.777D-02 0.187D-01-0.394D+00 0.137D+01
 Gap=     0.269 Goal=   None    Shift=    0.000
 RMSDP=8.84D-05 MaxDP=1.44D-03 DE=-3.59D-05 OVMax= 2.08D-03

 Cycle   5  Pass 1  IDiag  3:
 E= 0.359964122889096E-01 Delta-E=       -0.000003057753 Rises=F Damp=F
 DIIS: error= 2.42D-05 at cycle   5 NSaved=   5.
 NSaved= 5 IEnMin= 5 EnMin= 0.359964122889096E-01 IErMin= 5 ErrMin= 2.42D-05
 ErrMax= 2.42D-05  0.00D+00 EMaxC= 1.00D-01 BMatC= 2.24D-08 BMatP= 3.47D-07
 IDIUse=1 WtCom= 1.00D+00 WtEn= 0.00D+00
 Coeff-Com: -0.437D-02 0.320D-01-0.174D-03-0.393D+00 0.137D+01
 Coeff:     -0.437D-02 0.320D-01-0.174D-03-0.393D+00 0.137D+01
 Gap=     0.269 Goal=   None    Shift=    0.000
 RMSDP=1.73D-05 MaxDP=2.68D-04 DE=-3.06D-06 OVMax= 4.02D-04

 Cycle   6  Pass 1  IDiag  3:
 E= 0.359962781209049E-01 Delta-E=       -0.000000134168 Rises=F Damp=F
 DIIS: error= 3.84D-06 at cycle   6 NSaved=   6.
 NSaved= 6 IEnMin= 6 EnMin= 0.359962781209049E-01 IErMin= 6 ErrMin= 3.84D-06
 ErrMax= 3.84D-06  0.00D+00 EMaxC= 1.00D-01 BMatC= 1.18D-09 BMatP= 2.24D-08
 IDIUse=1 WtCom= 1.00D+00 WtEn= 0.00D+00
 Coeff-Com:  0.167D-02-0.172D-01 0.248D-01 0.106D+00-0.605D+00 0.149D+01
 Coeff:      0.167D-02-0.172D-01 0.248D-01 0.106D+00-0.605D+00 0.149D+01
 Gap=     0.269 Goal=   None    Shift=    0.000
 RMSDP=3.09D-06 MaxDP=2.43D-05 DE=-1.34D-07 OVMax= 4.17D-05

 Cycle   7  Pass 1  IDiag  3:
 E= 0.359962717448070E-01 Delta-E=       -0.000000006376 Rises=F Damp=F
 DIIS: error= 9.66D-07 at cycle   7 NSaved=   7.
 NSaved= 7 IEnMin= 7 EnMin= 0.359962717448070E-01 IErMin= 7 ErrMin= 9.66D-07
 ErrMax= 9.66D-07  0.00D+00 EMaxC= 1.00D-01 BMatC= 6.37D-11 BMatP= 1.18D-09
 IDIUse=1 WtCom= 1.00D+00 WtEn= 0.00D+00
 Coeff-Com: -0.317D-03 0.405D-02-0.769D-02-0.152D-01 0.132D+00-0.512D+00
 Coeff-Com:  0.140D+01
 Coeff:     -0.317D-03 0.405D-02-0.769D-02-0.152D-01 0.132D+00-0.512D+00
 Coeff:      0.140D+01
 Gap=     0.269 Goal=   None    Shift=    0.000
 RMSDP=7.29D-07 MaxDP=5.86D-06 DE=-6.38D-09 OVMax= 6.66D-06

 Cycle   8  Pass 1  IDiag  3:
 E= 0.359962713756943E-01 Delta-E=       -0.000000000369 Rises=F Damp=F
 DIIS: error= 2.45D-07 at cycle   8 NSaved=   8.
 NSaved= 8 IEnMin= 8 EnMin= 0.359962713756943E-01 IErMin= 8 ErrMin= 2.45D-07
 ErrMax= 2.45D-07  0.00D+00 EMaxC= 1.00D-01 BMatC= 4.12D-12 BMatP= 6.37D-11
 IDIUse=1 WtCom= 1.00D+00 WtEn= 0.00D+00
 Coeff-Com:  0.403D-04-0.699D-03 0.131D-02 0.253D-02-0.262D-01 0.124D+00
 Coeff-Com: -0.537D+00 0.144D+01
 Coeff:      0.403D-04-0.699D-03 0.131D-02 0.253D-02-0.262D-01 0.124D+00
 Coeff:     -0.537D+00 0.144D+01
 Gap=     0.269 Goal=   None    Shift=    0.000
 RMSDP=1.96D-07 MaxDP=1.86D-06 DE=-3.69D-10 OVMax= 1.93D-06

 Cycle   9  Pass 1  IDiag  3:
 E= 0.359962713502284E-01 Delta-E=       -0.000000000025 Rises=F Damp=F
 DIIS: error= 7.14D-08 at cycle   9 NSaved=   9.
 NSaved= 9 IEnMin= 9 EnMin= 0.359962713502284E-01 IErMin= 9 ErrMin= 7.14D-08
 ErrMax= 7.14D-08  0.00D+00 EMaxC= 1.00D-01 BMatC= 2.69D-13 BMatP= 4.12D-12
 IDIUse=1 WtCom= 1.00D+00 WtEn= 0.00D+00
 Coeff-Com:  0.129D-04-0.482D-04 0.782D-04 0.186D-03 0.593D-03-0.154D-01
 Coeff-Com:  0.127D+00-0.579D+00 0.147D+01
 Coeff:      0.129D-04-0.482D-04 0.782D-04 0.186D-03 0.593D-03-0.154D-01
 Coeff:      0.127D+00-0.579D+00 0.147D+01
 Gap=     0.269 Goal=   None    Shift=    0.000
 RMSDP=5.92D-08 MaxDP=6.81D-07 DE=-2.55D-11 OVMax= 7.87D-07

 Cycle  10  Pass 1  IDiag  3:
 E= 0.359962713478126E-01 Delta-E=       -0.000000000002 Rises=F Damp=F
 DIIS: error= 1.34D-08 at cycle  10 NSaved=  10.
 NSaved=10 IEnMin=10 EnMin= 0.359962713478126E-01 IErMin=10 ErrMin= 1.34D-08
 ErrMax= 1.34D-08  0.00D+00 EMaxC= 1.00D-01 BMatC= 9.61D-15 BMatP= 2.69D-13
 IDIUse=1 WtCom= 1.00D+00 WtEn= 0.00D+00
 Coeff-Com: -0.349D-05 0.298D-04-0.394D-04-0.181D-03 0.886D-03-0.109D-02
 Coeff-Com: -0.901D-02 0.799D-01-0.364D+00 0.129D+01
 Coeff:     -0.349D-05 0.298D-04-0.394D-04-0.181D-03 0.886D-03-0.109D-02
 Coeff:     -0.901D-02 0.799D-01-0.364D+00 0.129D+01
 Gap=     0.269 Goal=   None    Shift=    0.000
 RMSDP=1.22D-08 MaxDP=1.57D-07 DE=-2.42D-12 OVMax= 1.76D-07

 Cycle  11  Pass 1  IDiag  3:
 E= 0.359962713467326E-01 Delta-E=       -0.000000000001 Rises=F Damp=F
 DIIS: error= 4.80D-09 at cycle  11 NSaved=  11.
 NSaved=11 IEnMin=11 EnMin= 0.359962713467326E-01 IErMin=11 ErrMin= 4.80D-09
 ErrMax= 4.80D-09  0.00D+00 EMaxC= 1.00D-01 BMatC= 5.91D-16 BMatP= 9.61D-15
 IDIUse=1 WtCom= 1.00D+00 WtEn= 0.00D+00
 Coeff-Com:  0.511D-06-0.775D-05 0.921D-05 0.550D-04-0.345D-03 0.133D-02
 Coeff-Com: -0.494D-02 0.997D-02 0.145D-01-0.312D+00 0.129D+01
 Coeff:      0.511D-06-0.775D-05 0.921D-05 0.550D-04-0.345D-03 0.133D-02
 Coeff:     -0.494D-02 0.997D-02 0.145D-01-0.312D+00 0.129D+01
 Gap=     0.269 Goal=   None    Shift=    0.000
 RMSDP=3.33D-09 MaxDP=5.40D-08 DE=-1.08D-12 OVMax= 5.38D-08

 Cycle  12  Pass 2  IDiag  1:
 SCF Done:  E(RPM7) =  0.359962713467E-01 A.U. after   12 cycles
            NFock= 11  Conv=0.33D-08     -V/T= 1.0006
 KE=-6.222967740843D+01 PE=-2.579613911530D+02 EE= 1.471977233069D+02
 Leave Link  502 at Sat Dec 13 11:37:41 2025, MaxMem=   536870912 cpu:               0.0 elap:               0.6
 (Enter D:\G16W\l801.exe)
 Range of M.O.s used for correlation:     1    41
 NBasis=    41 NAE=    20 NBE=    20 NFC=     0 NFV=     0
 NROrb=     41 NOA=    20 NOB=    20 NVA=    21 NVB=    21
 Leave Link  801 at Sat Dec 13 11:37:42 2025, MaxMem=   536870912 cpu:               0.0 elap:               0.1
 (Enter D:\G16W\l1101.exe)
 Using compressed storage, NAtomX=    18.
 Will process     19 centers per pass.
 R6Disp: Adding PM7 dispersion energy 1st derivatives to the gradient.
 Leave Link 1101 at Sat Dec 13 11:37:42 2025, MaxMem=   536870912 cpu:               0.0 elap:               0.1
 (Enter D:\G16W\l1102.exe)
 Symmetrizing basis deriv contribution to polar:
 IMax=3 JMax=2 DiffMx= 0.00D+00
 Leave Link 1102 at Sat Dec 13 11:37:42 2025, MaxMem=   536870912 cpu:               0.0 elap:               0.1
 (Enter D:\G16W\l1110.exe)
 Forming Gx(P) for the SCF density, NAtomX=    18.
 Integral derivatives from FoFJK, PRISM(SPDF).
 Do as many integral derivatives as possible in FoFJK.
 G2DrvN: MDV=     536810568.
 G2DrvN: will do    19 centers at a time, making    1 passes.
 Calling FoFCou, ICntrl=  3107 FMM=F I1Cent=   0 AccDes= 0.00D+00.
 FoFJK:  IHMeth=43 ICntrl=    3107 DoSepK=F KAlg= 0 I1Cent=           0 FoldK=F
 IRaf=         0 NMat=       1 IRICut=       1 DoRegI=T DoRafI=F ISym2E= 0 IDoP0=3 IntGTp=3.
 FoFCou: FMM=F IPFlag=           0 FMFlag=      100000 FMFlg1=           0
         NFxFlg=           0 DoJE=F BraDBF=F KetDBF=F FulRan=T
         wScrn=  0.000000 ICntrl=      3107 IOpCl=  0 I1Cent=           0 NGrid=           0
         NMat0=    1 NMatS0=      1 NMatT0=    0 NMatD0=    1 NMtDS0=    0 NMtDT0=    0
 Symmetry not used in FoFCou.
 End of G2Drv F.D. properties file   721 does not exist.
 End of G2Drv F.D. properties file   722 does not exist.
 End of G2Drv F.D. properties file   788 does not exist.
 Leave Link 1110 at Sat Dec 13 11:37:42 2025, MaxMem=   536870912 cpu:               0.0 elap:               0.2
 (Enter D:\G16W\l1002.exe)
 Minotr:  Closed shell wavefunction.
          IDoAtm=111111111111111111
          Direct CPHF calculation.
          Differentiating once with respect to electric field.
                with respect to dipole field.
          Differentiating once with respect to nuclear coordinates.
          Electric field/nuclear overlap derivatives assumed to be zero.
          Requested convergence is 1.0D-08 RMS, and 1.0D-07 maximum.
          NewPWx=T KeepS1=F KeepF1=F KeepIn=T MapXYZ=F SortEE=F KeepMc=T.
 Keep J ints in memory in canonical form, NReq=1854664.
 FoFCou: FMM=F IPFlag=           0 FMFlag=           0 FMFlg1=           0
         NFxFlg=           0 DoJE=F BraDBF=F KetDBF=F FulRan=T
         wScrn=  0.000000 ICntrl=       600 IOpCl=  2 I1Cent=           0 NGrid=           0
         NMat0=    1 NMatS0=    107 NMatT0=    0 NMatD0=    1 NMtDS0=    0 NMtDT0=    0
 Symmetry not used in FoFCou.
 Two-electron integral symmetry not used.
          MDV=     536870912 using IRadAn=       1.
          Solving linear equations separately, MaxMat=       0.
          There are    57 degrees of freedom in the 1st order CPHF.  IDoFFX=5 NUNeed=    57.
 LinEq1:  Iter=  0 NonCon=    57 RMS=4.17D-01 Max=7.90D+00 NDo=    57
 AX will form    57 AO Fock derivatives at one time.
 LinEq1:  Iter=  1 NonCon=    57 RMS=4.14D-02 Max=2.43D-01 NDo=    57
 LinEq1:  Iter=  2 NonCon=    57 RMS=6.57D-03 Max=4.65D-02 NDo=    57
 LinEq1:  Iter=  3 NonCon=    57 RMS=1.20D-03 Max=8.88D-03 NDo=    57
 LinEq1:  Iter=  4 NonCon=    57 RMS=2.17D-04 Max=1.32D-03 NDo=    57
 LinEq1:  Iter=  5 NonCon=    57 RMS=3.73D-05 Max=2.41D-04 NDo=    57
 LinEq1:  Iter=  6 NonCon=    56 RMS=4.79D-06 Max=3.25D-05 NDo=    57
 LinEq1:  Iter=  7 NonCon=    18 RMS=6.09D-07 Max=4.56D-06 NDo=    57
 LinEq1:  Iter=  8 NonCon=     3 RMS=9.66D-08 Max=6.90D-07 NDo=    57
 LinEq1:  Iter=  9 NonCon=     0 RMS=9.26D-09 Max=8.72D-08 NDo=    57
 Linear equations converged to 1.000D-08 1.000D-07 after     9 iterations.
 FullF1:  Do perturbations      1 to       3.
 Isotropic polarizability for W=    0.000000       80.06 Bohr**3.
 End of Minotr F.D. properties file   721 does not exist.
 End of Minotr F.D. properties file   722 does not exist.
[...]
 0225557,0.0787562,0.2342952,-0.0111285,-0.0011596,-0.020045,0.1577917,
 0.2180459,0.0085018,0.0086695,-0.0150382,0.1477143,-0.0357435,-0.01539
 17,-0.0356327,0.1459708,0.1998699,-0.0216827,-0.0330163,-0.0029386,0.1
 583729,-0.0217921,0.0786903,-0.0129456,0.2337582,0.1998887,0.0353789,-
 0.0168637,-0.038367,0.1635447,-0.0209459,0.0687632,-0.0300768,0.228805
 4,0.1998785,0.0389635,-0.0023832,-0.0666796,0.2000975,0.0367948,-0.041
 9181,0.045747,0.1923661,0.2180503,-0.0119364,0.0030188,0.0207818,0.115
 4498,0.0171651,-0.0053103,0.0171567,0.1781508,0.218031,0.003233,-0.011
 5792,-0.0057966,0.177366,0.0185759,0.0207148,0.0184728,0.1162503,0.199
 8345,-0.0034219,0.0394952,-0.0403754,0.1903431,0.0455239,-0.067624,0.0
 366917,0.2019391,0.1998117,-0.0174148,0.0354771,0.0696416,0.22971,-0.0
 284662,-0.0367875,-0.0193831,0.1624115,5.364513,-0.0110656,-0.003583,0
 .0094896,-0.2158463,0.0007169,0.0013114,0.0002139,-0.2219632,-2.373356
 8,0.0046063,0.0005289,-0.0087057,-0.6812978,-0.0005219,-0.000378,-0.00
 00514,-0.680995,-0.2677239,0.0069922,-0.024772,-0.0333172,0.141033,-0.
 0198244,0.1184578,-0.0199865,0.2082476,-0.2686786,0.0167847,0.0193844,
 -0.086179,0.17275,0.0380753,-0.0881815,0.0381491,0.1765763,-0.2649741,
 -0.0212055,0.0073436,0.1197815,0.2067849,-0.0183737,-0.0307797,-0.0182
 712,0.1421294|Polar=166.8292974,0.2212085,36.0803628,-0.1223924,-0.004
 4859,37.8297071|HyperPolar=6269.259995,5.5527982,64.3769097,0.9723459,
 -3.8485162,0.4833696,-0.7336173,64.0796153,-0.7821346,1.0870901|PG=C01
  [X(C4H12I1N1)]|NImag=1||0.41579906,0.00599799,0.43985230,0.00613565,0
 .01024819,0.44032149,-0.09436210,-0.03078569,-0.03149853,0.33111547,-0
 .04654839,-0.13666803,-0.06288726,-0.00000898,0.57959436,-0.04762554,-
 0.06288623,-0.13954734,-0.00002596,0.,0.57959444,0.00649597,-0.0093750
 9,0.00337357,-0.09437413,0.06452960,-0.01650516,0.41580088,0.00626282,
 -0.04187072,-0.00737700,0.04268199,-0.19327351,0.03020012,-0.00831687,
 0.44907708,0.00775671,-0.02201609,0.00645695,-0.01091778,0.03020244,-0
 .08292960,0.00212533,-0.00492157,0.43109497,0.00649692,0.00358732,-0.0
 0929375,-0.09438324,-0.01797652,0.06414442,0.00649810,0.00176689,-0.00
 980780,0.41580232,0.00761306,0.00710230,-0.02089591,-0.01189140,-0.084
 36476,0.03268604,-0.00984972,-0.01835389,0.03559158,0.00231618,0.43132
 882,0.00644122,-0.00625810,-0.04251699,0.04243007,0.03268464,-0.191829
 32,0.00154536,0.02095564,-0.01706234,-0.00826866,-0.00532649,0.4488417
 8,-0.05995606,0.05733650,-0.01427208,0.00655461,-0.00657711,0.00133743
 ,-0.00087828,-0.00107665,-0.00119290,-0.00031923,-0.00002045,-0.000166
 00,0.06296543,0.05402374,-0.17465362,0.03416130,0.00398798,-0.04041915
 ,-0.01026128,-0.00087790,-0.00094477,-0.00158042,0.00091985,-0.0005945
 6,-0.00094893,-0.06511843,0.22862620,-0.01588690,0.04203817,-0.0479376
 3,0.00516024,-0.02576060,0.00271875,-0.00161139,-0.00189299,-0.0023206
 1,0.00082814,-0.00079365,-0.00136985,0.01992006,-0.03394609,0.05524314
 ,-0.20735266,-0.00812277,-0.00832186,-0.01929532,-0.01400265,-0.014327
 86,0.00009800,-0.00034515,0.00048415,0.00009807,0.00049190,-0.00033396
 ,-0.01514727,0.00814760,-0.00222714,0.25648939,-0.00228810,-0.03771680
 ,0.00052769,-0.02727544,-0.00794721,-0.01264428,-0.00068258,-0.0005615
 7,0.00032969,-0.00033888,0.00007999,-0.00017333,0.02129544,-0.00151117
 ,0.00158094,0.01678852,0.04519194,-0.00235240,0.00052729,-0.03769345,-
 0.02790742,-0.01264337,-0.00852782,-0.00035458,-0.00018797,0.00008357,
 -0.00069045,0.00034443,-0.00055804,-0.00759543,0.00224580,0.00390257,0
 .01719131,0.00931662,0.04561999,-0.05996553,-0.01557995,0.05700602,0.0
 0655519,0.00148772,-0.00654338,-0.00031924,-0.00016552,-0.00002426,-0.
 00087833,-0.00116796,-0.00110374,0.00653788,0.00226169,-0.00484089,-0.
 01514984,-0.00807883,0.02111558,0.06297681,-0.01711919,-0.04974190,0.0
 4488751,0.00506925,0.00351851,-0.02475578,0.00080690,-0.00132967,-0.00
 081040,-0.00159089,-0.00224037,-0.00192262,-0.00489372,-0.00987863,0.0
 2020380,-0.00241155,0.00381304,0.00170100,0.02140460,0.05688133,0.0536
 5663,0.03701104,-0.17283986,0.00410735,-0.00925745,-0.04121953,0.00093
 847,-0.00096580,-0.00063470,-0.00091459,-0.00161005,-0.00102496,0.0021
 5226,0.01112794,-0.00916281,0.00809386,0.00236641,-0.00141906,-0.06465
 966,-0.03786486,0.22697662,-0.00031912,0.00015419,0.00006523,0.0065558
 9,0.00213215,-0.00636716,-0.05996579,-0.01631519,0.05680099,-0.0008787
 5,0.00157177,-0.00033615,0.00008328,-0.00001783,-0.00004627,0.00002206
 ,-0.00027092,0.00004729,0.00040232,-0.00016884,-0.00010581,0.06297767,
 -0.00117685,-0.00193073,0.00002218,-0.00646301,-0.02366426,0.03543261,
 -0.01325936,-0.04662564,0.03188795,0.00183478,-0.00348017,0.00042906,0
 .00004745,-0.00007711,0.00010537,-0.00015740,-0.00034913,0.00004094,0.
 00019943,-0.00105524,-0.00048439,0.01531432,0.06919521,0.00038250,0.00
 017764,-0.00003376,0.00087328,0.01993542,-0.01403744,0.05473825,0.0397
 6411,-0.17595593,0.00004526,0.00011655,0.00021524,-0.00010499,-0.00014
 779,-0.00007763,0.00001033,-0.00005275,0.00016324,-0.00000262,-0.00035
 742,0.00032879,-0.06636493,-0.05811171,0.21466186,-0.00087864,0.001539
 94,-0.00045989,0.00655447,0.00493067,0.00456271,-0.05994345,-0.0415621
 1,-0.04197850,-0.00031908,0.00010384,-0.00013128,0.00023239,0.00018915
 ,0.00028083,-0.00004823,-0.00010489,-0.00010877,0.00008328,0.00001404,
 -0.00011437,0.00653750,0.00306333,0.00438327,0.06295087,0.00158762,-0.
 00285804,0.00125331,-0.00608193,-0.04476331,-0.01861808,-0.03789290,-0
 .10661388,-0.06985028,-0.00121609,-0.00157771,0.00082249,-0.00030743,-
 0.00041158,-0.00065167,0.00015579,-0.00007715,0.00007087,0.00003931,-0
 .00009607,0.00013655,0.00058363,0.00422579,-0.00298433,0.04527015,0.15
 167403,-0.00092074,0.00156577,-0.00040700,0.00233680,-0.00311865,0.007
 06300,-0.04163568,-0.07772719,-0.11599003,0.00022945,0.00066736,-0.000
 38681,0.00014162,0.00017949,0.00036484,-0.00010916,-0.00011030,-0.0000
 5599,-0.00003025,-0.00011659,-0.00005867,-0.00530873,-0.01206130,-0.02
 326680,0.05084464,0.09259892,0.13220985,0.00009788,0.00004333,0.000593
 05,-0.01930183,0.01940888,-0.00496638,-0.20735423,0.01124383,-0.002894
 85,0.00009806,-0.00024670,-0.00054094,-0.00004822,-0.00007637,-0.00017
 422,0.00024720,0.00020465,0.00008675,0.00002202,0.00012915,0.00009063,
 -0.01515018,-0.00214803,0.00816777,-0.01514398,-0.00580565,-0.00613696
 ,0.25649458,0.00076754,-0.00032431,-0.00057770,0.03780540,-0.01932427,
 0.00607408,0.00315701,-0.03724039,-0.00025346,0.00064833,-0.00001626,0
 .00050270,0.00014613,-0.00008894,0.00009023,-0.00021982,-0.00058172,-0
 .00005880,0.00020693,-0.00021597,-0.00017790,-0.00407285,0.00420526,0.
 00105580,-0.01424927,0.00164730,-0.00295244,-0.02325262,0.05357474,0.0
 0005177,-0.00006020,-0.00015354,-0.00967117,0.00607200,0.00285565,-0.0
 0082668,-0.00025249,-0.03816822,-0.00041378,-0.00001499,-0.00046175,-0
 .00003842,-0.00009092,-0.00004421,-0.00003218,-0.00039408,0.00016289,0
 .00018122,-0.00027158,0.00003013,0.02223824,0.00172290,-0.00181097,-0.
 01755576,-0.00361837,0.00074081,0.00597187,-0.00447501,0.03723197,0.00
 009788,0.00059195,0.00005692,-0.01930666,-0.00540741,0.01929075,0.0000
 9798,-0.00053527,-0.00025897,-0.20735542,-0.00313925,0.01116350,0.0000
 2201,0.00008767,0.00013118,0.00024720,0.00008205,0.00020661,-0.0000482
 5,-0.00017244,-0.00008034,-0.00004827,0.00018908,0.00002096,0.00002205
 ,-0.00014305,0.00006649,0.00024721,-0.00017741,0.00013383,0.25649851,0
 .00003421,-0.00013910,-0.00005596,-0.01053125,0.00256777,0.00657020,-0
 .00042851,-0.00047261,-0.00002542,-0.00088687,-0.03815586,-0.00027425,
 0.00017646,0.00004025,-0.00026572,-0.00002713,0.00017284,-0.00037685,-
 0.00004174,-0.00004420,-0.00008990,-0.00003981,-0.00005566,0.00011012,
 -0.00026040,-0.00022608,0.00026575,0.00013778,-0.00021937,0.00060331,0
 .00648673,0.03744402,0.00076851,-0.00057349,-0.00033874,0.03757507,0.0
 0657136,-0.01903148,0.00063875,0.00049221,-0.00000533,0.00312593,-0.00
 027481,-0.03725154,0.00021102,-0.00017206,-0.00022609,-0.00022045,-0.0
 0004153,-0.00059167,0.00014522,0.00009123,-0.00008892,0.00014578,-0.00
 007098,-0.00007743,0.00008857,0.00017209,0.00004021,-0.00017427,0.0002
 6796,-0.00019947,-0.02309698,-0.00484158,0.05335876,-0.00087893,-0.000
 49500,0.00152927,0.00655503,0.00445010,0.00503692,-0.00031900,-0.00013
 371,0.00010094,-0.05994373,-0.04101707,-0.04251239,0.00008326,-0.00011
 468,0.00001143,-0.00004825,-0.00010636,-0.00010735,0.00023243,0.000276
 49,0.00019557,0.00008325,0.00004904,0.00000769,0.00040230,0.00017605,-
 0.00009332,0.00002210,0.00009449,-0.00025827,-0.01514422,-0.01722429,-
 0.01464791,0.06295164,-0.00095685,-0.00047256,0.00162012,0.00247529,0.
 00753194,-0.00192380,0.00025713,-0.00042148,0.00069380,-0.04075764,-0.
 11260893,-0.07786409,-0.00003114,-0.00005914,-0.00011575,-0.00011268,-
 0.00005508,-0.00010979,0.00014861,0.00037520,0.00019746,0.00006721,-0.
 00009584,0.00013697,-0.00009742,-0.00038172,0.00074624,0.00006972,0.00
 003006,0.00027162,-0.00600142,0.00089295,-0.00296908,0.04979558,0.1279
 8332,0.00156640,0.00130768,-0.00279217,-0.00602472,-0.01742234,-0.0452
 3278,-0.00121038,0.00084898,-0.00154314,-0.03883572,-0.06998741,-0.109
 99469,0.00003862,0.00013739,-0.00009559,0.00015326,0.00007136,-0.00007
 804,-0.00030412,-0.00063365,-0.00042198,0.00009361,-0.00011618,-0.0000
 5886,0.00017398,0.00087330,-0.00034471,-0.00014147,0.00017795,-0.00021
 597,-0.00594568,-0.00363637,0.00149542,0.04642013,0.09205779,0.1558997
 8,-0.00031903,0.00006171,0.00015576,0.00655584,-0.00641807,0.00198944,
 -0.00087899,-0.00037192,0.00156385,-0.05995628,0.05714883,-0.01501176,
 0.00040231,-0.00010190,-0.00017113,0.00002209,0.00005347,-0.00026975,0
 .00008326,-0.00004587,-0.00001889,0.00023247,-0.00033784,0.00002341,0.
 00008325,0.00009206,0.00006935,-0.00004826,0.00014665,-0.00003646,-0.0
 1514773,0.02232629,-0.00356496,0.00653718,-0.00532187,0.00046212,0.062
 96663,0.00040929,-0.00003935,0.00022088,0.00101785,-0.01530666,0.02012
 632,0.00000339,0.00020087,0.00020056,0.05501632,-0.17753266,0.03677757
 ,-0.00000715,0.00034730,-0.00032536,0.00001392,0.00016324,-0.00004102,
 -0.00010605,-0.00007665,-0.00014779,0.00003110,-0.00003377,0.00003868,
 0.00000655,-0.00005936,0.00013780,0.00001662,-0.00007833,0.00010960,0.
 00821557,-0.00187338,0.00091771,0.00431036,-0.02290875,-0.00360416,-0.
 06668321,0.21724962,-0.00116770,0.00006549,-0.00192524,-0.00643699,0.0
 3562361,-0.02239496,0.00183555,0.00051302,-0.00346555,-0.01200441,0.02
 890139,-0.04505845,0.00019938,-0.00045236,-0.00107374,-0.00015709,0.00
 005266,-0.00034916,0.00004506,0.00010537,-0.00007807,-0.00033715,0.000
 86973,-0.00001304,0.00004920,-0.00011534,-0.00009534,0.00018950,-0.000
 07151,-0.00005477,-0.00196203,0.00158564,0.00426523,0.00316195,-0.0126
 8194,0.00386804,0.01379021,-0.05473404,0.06661849,0.00706586,-0.003523
 18,-0.00360423,0.07337403,0.00000363,0.00001047,0.00706404,0.00488395,
 -0.00124874,0.00706271,-0.00136054,0.00485474,-0.00005507,-0.00500623,
 -0.00170082,-0.00036636,0.00175133,0.00179179,-0.00005482,-0.00158605,
 -0.00504379,-0.00005519,0.00397607,-0.00348514,-0.00005574,0.00516105,
 0.00114834,-0.00036615,-0.00242734,0.00062077,-0.00036599,0.00067605,-
 0.00241238,-0.00005608,0.00103021,0.00518590,-0.00005575,-0.00357497,0
 .00389541,-0.13354293,-0.00845331,0.00008855,-0.00140377,0.00000369,-0
 .02681324,0.,0.01171728,-0.00117300,0.00067472,-0.00326340,0.00125561,
 0.00072906,-0.00041340,-0.00030134,-0.00013752,-0.00012456,-0.00067454
 ,-0.00073717,-0.00007844,-0.00007148,0.00011957,0.00028288,-0.00013895
 ,-0.00002106,0.00039894,-0.00024920,0.00002953,0.00017271,-0.00133844,
 0.00035408,-0.00004818,-0.00006139,0.00038310,0.00013062,-0.00011919,-
 0.00021933,-0.00032047,-0.00023880,0.00022881,-0.00002007,0.42907100,-
 0.00864827,-0.00140337,0.00002368,0.00001052,0.,-0.02681325,-0.0029960
 2,0.00067402,0.00128743,0.01164640,0.00072934,-0.00113991,-0.00008791,
 0.00011400,-0.00007202,-0.00012745,-0.00073706,-0.00070814,-0.00041530
 ,-0.00013235,-0.00030210,-0.00031408,0.00023138,-0.00023430,0.00013975
 ,-0.00022196,-0.00012346,-0.00004423,0.00035378,-0.00004451,0.00017175
 ,0.00038329,-0.00132173,0.00040203,0.00003253,-0.00025315,0.00027562,-
 0.00002360,-0.00013391,-0.00005878,0.,0.42907110,-0.00452256,-0.000303
 12,-0.00031045,-0.02378726,-0.00000094,-0.00000264,-0.00452261,0.00041
 979,-0.00010782,-0.00452266,-0.00011704,0.00041690,0.00025215,0.001448
 82,0.00031723,0.00021927,-0.00034577,-0.00035374,0.00025207,0.00028401
 ,0.00145572,0.00025215,-0.00099911,0.00109615,0.00025234,-0.00140264,-
 0.00048182,0.00021925,0.00047925,-0.00012254,0.00021921,-0.00013348,0.
 00047632,0.00025242,-0.00044969,-0.00141325,0.00025232,0.00111864,-0.0
 0097378,0.05953774,0.00000240,0.00000684,0.04360572,0.00003637,0.00021
 497,-0.00006610,-0.00000079,0.00125920,0.,-0.00005067,0.00015558,0.000
 03171,0.00001397,0.00026991,0.00003439,0.00018311,-0.00013339,0.000029
 45,0.00001150,0.00001633,0.00006195,0.00006574,-0.00009690,0.00001829,
 -0.00015214,-0.00008497,0.00001063,-0.00019279,-0.00010254,-0.00003354
 ,-0.00001590,0.00007211,-0.00002975,0.00000446,-0.00003519,-0.00003220
 ,-0.00003098,-0.00012553,-0.00002203,0.00012705,-0.00014444,-0.0000028
 0,0.00000191,-0.00580870,0.,0.00000140,0.00528300,0.00003686,-0.000066
 11,0.00021193,-0.00000257,0.,0.00125920,0.00001245,0.00003180,0.000271
 41,-0.00005074,0.00003433,0.00015712,0.00006998,0.00001755,-0.00009577
 ,0.00001178,0.00006193,0.00001914,0.00018470,0.00003030,-0.00013218,0.
 00012364,-0.00000153,-0.00014418,-0.00003536,-0.00002160,-0.00012682,0
 .00000410,-0.00002971,-0.00003662,-0.00001580,-0.00003222,0.00007074,-
 0.00019352,-0.00003407,-0.00010393,-0.00014924,0.00000935,-0.00008488,
 0.00000661,0.,-0.00580870,0.00000403,0.,0.00528290,-0.00226872,-0.0008
 7901,-0.00022932,-0.02633932,-0.00457177,0.01630777,-0.00226887,0.0008
 6996,0.00026082,-0.00296186,-0.00001543,0.00005479,-0.00010768,0.00013
 323,0.00012907,-0.00000752,-0.00012856,-0.00010564,-0.00054265,-0.0002
 3943,-0.00023516,-0.00054276,0.00032672,-0.00007653,-0.00010771,-0.000
 18092,0.00004105,-0.00000754,0.00016473,-0.00002346,-0.00002037,-0.000
 17469,0.00062330,-0.00007875,-0.00006299,-0.00035989,-0.00007877,0.000
 24082,-0.00027477,-0.00637849,-0.00305747,0.01091850,-0.02265196,0.002
 12163,-0.00757640,0.05576333,-0.00041297,-0.00050165,0.00000478,-0.002
 72260,0.00152896,0.00132109,0.00036398,-0.00029136,-0.00003109,0.00009
 090,-0.00008426,0.00000117,-0.00028280,-0.00010760,0.00005467,-0.00004
 319,-0.00000203,-0.00005580,-0.00050148,0.00008414,-0.00031281,0.00063
 813,-0.00009729,0.00014607,0.00027218,-0.00003480,-0.00017870,0.000052
 66,-0.00009005,0.00002674,-0.00000504,0.00006018,-0.00001080,-0.000004
 93,0.00003153,-0.00001558,-0.00003626,0.00001811,0.00005549,-0.0030478
 5,-0.05428855,0.04674456,0.00139305,0.00112221,0.00083232,0.00469880,0
 .05351231,-0.00002180,0.00031438,-0.00024811,0.00970893,0.00132070,-0.
 00281130,0.00019598,-0.00034073,-0.00045828,-0.00032477,0.00000110,-0.
 00008804,-0.00005884,-0.00005904,0.00016913,-0.00003031,-0.00011803,-0
 .00004230,-0.00040360,-0.00015243,0.00017675,-0.00008426,-0.00001431,0
 .00035830,0.00009669,-0.00006501,0.00009635,-0.00000345,0.00008897,0.0
 0004573,0.00001795,-0.00001081,0.00009572,0.00007783,0.00003343,-0.000
 04758,0.00006906,0.00000652,-0.00003415,0.01088289,0.04674451,-0.20799
 401,-0.00497616,0.00083241,-0.00161639,-0.01676319,-0.05638370,0.23891
 268,-0.00296187,-0.00004008,-0.00004121,-0.02633420,-0.01184046,-0.012
 11601,-0.00226871,0.00063779,-0.00064671,-0.00226885,-0.00066098,0.000
 62272,-0.00007880,0.00034317,0.00012542,-0.00002026,-0.00045248,-0.000
 46294,-0.00007881,0.00011756,0.00034595,-0.00010767,-0.00017844,0.0000
 5082,-0.00054274,0.00032328,-0.00008989,-0.00000754,0.00015577,-0.0000
 5854,-0.00000755,-0.00006208,0.00015440,-0.00054282,-0.00009722,0.0003
 2113,-0.00010767,0.00005486,-0.00017724,-0.00637426,-0.00789805,-0.008
 07820,-0.02265438,0.00549756,0.00562303,0.00429969,0.00086525,0.001114
 70,0.05575668,0.00023550,-0.00008606,-0.00000218,-0.00705036,-0.000584
 99,-0.00254224,0.00022512,-0.00017324,-0.00012484,-0.00035194,-0.00057
 768,0.00017549,-0.00006495,-0.00002004,-0.00006321,-0.00001305,0.00007
 746,0.00002077,-0.00004169,0.00000577,-0.00001362,0.00019230,0.0000980
 6,0.00017781,0.00060018,-0.00004772,0.00007629,0.00004785,-0.00010746,
 0.00005713,-0.00002335,0.00006189,-0.00000122,-0.00024625,0.00030141,0
 .00024454,-0.00021985,-0.00004198,0.00006082,-0.00787227,-0.12908806,-
 0.08993093,0.00360997,-0.00020956,-0.00160087,0.00022360,0.00632662,0.
 00074195,0.01214171,0.14373641,0.00024069,-0.00000221,-0.00008616,-0.0
 0721514,-0.00254258,-0.00070250,-0.00034702,0.00018485,-0.00057659,0.0
 0021695,-0.00013414,-0.00017198,-0.00004319,-0.00001417,0.00000403,-0.
 00001335,0.00002072,0.00007835,-0.00006592,-0.00006261,-0.00002177,-0.
 00021550,0.00006402,-0.00003654,-0.00023263,0.00023660,0.00030872,-0.0
 0002227,-0.00000508,0.00006316,0.00004734,0.00006099,-0.00010617,0.000
 59469,0.00008421,-0.00004033,0.00018732,0.00017460,0.00010351,-0.00805
 165,-0.08993092,-0.13319875,0.00369176,-0.00160072,-0.00028215,-0.0013
 8720,-0.01515737,-0.02001372,0.01242347,0.10847588,0.14869522,-0.00226
 865,-0.00020903,-0.00088411,-0.02633704,0.01640946,-0.00419982,-0.0029
 6187,0.00005532,-0.00001439,-0.00226895,0.00024103,0.00087553,-0.00054
 264,-0.00022956,-0.00024480,-0.00000751,-0.00010267,-0.00013094,-0.000
 10767,0.00012601,0.00013615,-0.00007880,-0.00028021,0.00023449,-0.0000
 7877,-0.00035836,-0.00007119,-0.00002032,0.00062714,-0.00016040,-0.000
 00755,-0.00002721,0.00016416,-0.00010770,0.00004519,-0.00017993,-0.000
 54283,-0.00008394,0.00032486,-0.00637663,0.01096870,-0.00280126,-0.022
 65303,-0.00762133,0.00194647,0.00429975,-0.00131777,0.00050231,0.00429
 956,-0.00139248,0.00019171,0.05576049,-0.00001220,-0.00025553,0.000320
 04,0.00977007,-0.00287117,0.00122115,-0.00032649,-0.00008804,0.0000009
 7,0.00018781,-0.00044974,-0.00034436,-0.00039198,0.00018736,-0.0001500
 9,-0.00002931,-0.00003829,-0.00011883,-0.00005236,0.00016909,-0.000052
 73,0.00006985,-0.00003552,0.00000528,0.00007791,-0.00004792,0.00003163
 ,0.00001807,0.00009612,-0.00000996,-0.00000466,0.00004303,0.00009198,0
 .00009046,0.00010184,-0.00006186,-0.00009875,0.00035506,-0.00000400,0.
 01093263,-0.21005027,0.04318638,-0.00500522,-0.00165218,0.00076855,0.0
 0053108,-0.00718659,0.00705995,0.00109305,-0.01967074,0.00014802,-0.01
 685004,0.24139362,-0.00041352,0.00001040,-0.00049431,-0.00250184,0.001
 22187,0.00158656,0.00008321,0.00000107,-0.00008421,0.00036822,-0.00003
 472,-0.00029986,-0.00051063,-0.00031044,0.00007352,-0.00004388,-0.0000
 5663,-0.00000603,-0.00028406,0.00006101,-0.00010757,-0.00003466,0.0000
 5426,0.00001951,-0.00000316,-0.00001743,0.00003188,-0.00000463,-0.0000
 0992,0.00005970,0.00005258,0.00002978,-0.00008733,0.00027430,-0.000175
 59,-0.00004030,0.00063601,0.00015636,-0.00009397,-0.00279209,0.0431864
 1,-0.05223403,0.00127733,0.00076831,0.00115903,-0.00130373,0.02295898,
 -0.00650068,0.00088924,-0.01575154,0.00598368,0.00431134,-0.05209215,0
 .05103423||-0.00000006,-0.00000003,-0.00000003,-0.00000015,0.,0.,-0.00
 000006,0.00000004,0.,-0.00000006,-0.00000001,0.00000004,0.,0.,0.,-0.00
 000001,-0.00000001,-0.00000001,0.,0.,0.,0.,0.,0.,0.,0.,0.,-0.00000001,
 0.00000001,0.,-0.00000001,0.,0.00000001,0.,0.,0.,0.,0.,0.,0.00000073,0
 .,0.,0.00000136,0.,0.,-0.00000059,0.00000009,-0.00000032,-0.00000058,0
 .00000023,0.00000024,-0.00000058,-0.00000032,0.00000008|||@


 SUCCESS-- IF YOU HAVE TRIED TO DO SOMETHING AND FAILED
           YOU ARE BETTER OFF THAN IF YOU HAD TRIED TO DO
           NOTHING AND SUCCEEDED.

                   -- FROM THE BACK OF A SUGAR PACKET
 Job cpu time:       0 days  0 hours  0 minutes  4.0 seconds.
 Elapsed time:       0 days  0 hours  0 minutes  3.3 seconds.
 File lengths (MBytes):  RWF=     16 Int=      0 D2E=      0 Chk=      2 Scr=      1
 Normal termination of Gaussian 16 at Sat Dec 13 11:37:52 2025.
