 Entering Gaussian System, Link 0=g16.exe
 Input=MeNH2_Fine_ts.gjf
 Output=MeNH2_Fine_ts.log
 Initial command:
 D:\G16W\l1.exe ".\Gau-18436.inp" "MeNH2_Fine_ts.log" /scrdir=".\"
 Entering Link 1 = D:\G16W\l1.exe PID=     22172.
  
 Copyright (c) 1988,1990,1992,1993,1995,1998,2003,2009,2016,
            Gaussian, Inc.  All Rights Reserved.
  
 This is part of the Gaussian(R) 16 program.  It is based on
 the Gaussian(R) 09 system (copyright 2009, Gaussian, Inc.),
 the Gaussian(R) 03 system (copyright 2003, Gaussian, Inc.),
 the Gaussian(R) 98 system (copyright 1998, Gaussian, Inc.),
 the Gaussian(R) 94 system (copyright 1995, Gaussian, Inc.),
 the Gaussian 92(TM) system (copyright 1992, Gaussian, Inc.),
 the Gaussian 90(TM) system (copyright 1990, Gaussian, Inc.),
 the Gaussian 88(TM) system (copyright 1988, Gaussian, Inc.),
 the Gaussian 86(TM) system (copyright 1986, Carnegie Mellon
 University), and the Gaussian 82(TM) system (copyright 1983,
 Carnegie Mellon University). Gaussian is a federally registered
 trademark of Gaussian, Inc.
  
 This software contains proprietary and confidential information,
 including trade secrets, belonging to Gaussian, Inc.
  
 This software is provided under written license and may be
 used, copied, transmitted, or stored only in accord with that
 written license.
  
 The following legend is applicable only to US Government
 contracts under FAR:
  
                    RESTRICTED RIGHTS LEGEND
  
 Use, reproduction and disclosure by the US Government is
 subject to restrictions as set forth in subparagraphs (a)
 and (c) of the Commercial Computer Software - Restricted
 Rights clause in FAR 52.227-19.
  
 Gaussian, Inc.
 340 Quinnipiac St., Bldg. 40, Wallingford CT 06492
  
  
 ---------------------------------------------------------------
 Warning -- This program may not be used in any manner that
 competes with the business of Gaussian, Inc. or will provide
 assistance to any competitor of Gaussian, Inc.  The licensee
 of this program is prohibited from giving any competitor of
 Gaussian, Inc. access to this program.  By using this program,
 the user acknowledges that Gaussian, Inc. is engaged in the
 business of creating and licensing software in the field of
 computational chemistry and represents and warrants to the
 licensee that it is not a competitor of Gaussian, Inc. and that
 it will not use this program in any manner prohibited above.
 ---------------------------------------------------------------
  

 Cite this work as:
 Gaussian 16, Revision A.03,
 M. J. Frisch, G. W. Trucks, H. B. Schlegel, G. E. Scuseria, 
 M. A. Robb, J. R. Cheeseman, G. Scalmani, V. Barone, 
 G. A. Petersson, H. Nakatsuji, X. Li, M. Caricato, A. V. Marenich, 
 J. Bloino, B. G. Janesko, R. Gomperts, B. Mennucci, H. P. Hratchian, 
 J. V. Ortiz, A. F. Izmaylov, J. L. Sonnenberg, D. Williams-Young, 
 F. Ding, F. Lipparini, F. Egidi, J. Goings, B. Peng, A. Petrone, 
 T. Henderson, D. Ranasinghe, V. G. Zakrzewski, J. Gao, N. Rega, 
 G. Zheng, W. Liang, M. Hada, M. Ehara, K. Toyota, R. Fukuda, 
 J. Hasegawa, M. Ishida, T. Nakajima, Y. Honda, O. Kitao, H. Nakai, 
 T. Vreven, K. Throssell, J. A. Montgomery, Jr., J. E. Peralta, 
 F. Ogliaro, M. J. Bearpark, J. J. Heyd, E. N. Brothers, K. N. Kudin, 
 V. N. Staroverov, T. A. Keith, R. Kobayashi, J. Normand, 
 K. Raghavachari, A. P. Rendell, J. C. Burant, S. S. Iyengar, 
 J. Tomasi, M. Cossi, J. M. Millam, M. Klene, C. Adamo, R. Cammi, 
 J. W. Ochterski, R. L. Martin, K. Morokuma, O. Farkas, 
 J. B. Foresman, and D. J. Fox, Gaussian, Inc., Wallingford CT, 2016.
 
 ******************************************
 Gaussian 16:  EM64W-G16RevA.03 17-Dec-2016
                13-Dec-2025 
 ******************************************
 %nproc=6
 Will use up to    6 processors via shared memory.
 %mem=4GB
 -------------------------------
 #PM7 opt(ts,calcall,noeig) freq
 -------------------------------
 1/5=1,10=4,11=1,18=20,26=1,38=1/1,3;
 2/9=110,12=2,17=6,18=5,40=1/2;
 3/5=2,25=1,41=4200000,71=2,140=1/1,2,3;
 4/35=1/1;
 5/5=2,35=1,38=5/2;
 8/6=4,10=90,11=11/1;
 11/6=1,8=1,9=11,15=111,16=1/1,2,10;
 10/6=1/2;
 6/7=2,8=2,9=2,10=2,18=1,28=1/1;
 7/10=1,25=1/1,2,3,16;
 1/5=1,10=4,11=1,18=20,26=1/3(3);
 2/9=110/2;
 7/8=1,9=1,25=1,44=-1/16;
 99//99;
 2/9=110/2;
 3/5=2,25=1,41=4200000,71=2,135=20,140=1/1,2,3;
 4/5=5,16=3,35=1/1;
 5/5=2,35=1,38=5/2;
 8/6=4,10=90,11=11/1;
 11/6=1,8=1,9=11,15=111,16=1/1,2,10;
 10/6=1/2;
 7/10=1,25=1/1,2,3,16;
 1/5=1,10=4,11=1,18=20,26=1/3(-8);
 2/9=110/2;
 6/7=2,8=2,9=2,10=2,18=1,19=2,28=1/1;
 7/8=1,9=1,25=1,44=-1/16;
 99//99;
 Leave Link    1 at Sat Dec 13 12:25:10 2025, MaxMem=   536870912 cpu:               0.0 elap:               0.1
 (Enter D:\G16W\l101.exe)
 --------------------
 title: MeNH2_Fine_TS
 --------------------
 Symbolic Z-matrix:
 Charge =  0 Multiplicity = 1
 C                    -3.81217  -0.70132   0. 
 N                    -3.11724   0.61416   0.00013 
 H                    -3.5201   -1.28833  -0.89081 
 H                    -4.90924  -0.60181   0.00014 
 H                    -3.51987  -1.28864   0.89052 
 H                    -3.35586   1.15961  -0.82814 
 H                    -3.35559   1.15931   0.82867 
 C                    -1.29658   0.34808  -0.0002 
 I                     1.40845  -0.04361   0.00001 
 H                    -1.2461   -0.20361   0.9337 
 H                    -1.02127   1.39891  -0.00063 
 H                    -1.24641  -0.20403  -0.93387 
 
 Add virtual bond connecting atoms C8         and N2         Dist= 3.48D+00.
 Add virtual bond connecting atoms I9         and C8         Dist= 5.17D+00.
 Add virtual bond connecting atoms I9         and H10        Dist= 5.33D+00.
 Add virtual bond connecting atoms I9         and H11        Dist= 5.34D+00.
 Add virtual bond connecting atoms I9         and H12        Dist= 5.33D+00.
 Add atom      9 valence  4 ND=      0 dihedral       8      9     10     11
 Add atom      9 valence  4 ND=      0 dihedral       8      9     10     12
 Add atom      9 valence  4 ND=      0 dihedral       8      9     11     12
 ITRead=  0  0  0  0  0  0  0  0  0  0  0  0
 MicOpt= -1 -1 -1 -1 -1 -1 -1 -1 -1 -1 -1 -1
 NAtoms=     12 NQM=       12 NQMF=       0 NMMI=      0 NMMIF=      0
                NMic=       0 NMicF=      0.
                    Isotopes and Nuclear Properties:
 (Nuclear quadrupole moments (NQMom) in fm**2, nuclear magnetic moments (NMagM)
  in nuclear magnetons)

  Atom         1           2           3           4           5           6           7           8           9          10
 IAtWgt=          12          14           1           1           1           1           1          12         127           1
 AtmWgt=  12.0000000  14.0030740   1.0078250   1.0078250   1.0078250   1.0078250   1.0078250  12.0000000 126.9004000   1.0078250
 NucSpn=           0           2           1           1           1           1           1           0           5           1
 AtZEff=   0.0000000   0.0000000   0.0000000   0.0000000   0.0000000   0.0000000   0.0000000   0.0000000   0.0000000   0.0000000
 NQMom=    0.0000000   2.0440000   0.0000000   0.0000000   0.0000000   0.0000000   0.0000000   0.0000000 -71.0000000   0.0000000
 NMagM=    0.0000000   0.4037610   2.7928460   2.7928460   2.7928460   2.7928460   2.7928460   0.0000000   2.8132800   2.7928460
 AtZNuc=   6.0000000   7.0000000   1.0000000   1.0000000   1.0000000   1.0000000   1.0000000   6.0000000  53.0000000   1.0000000

  Atom        11          12
 IAtWgt=           1           1
 AtmWgt=   1.0078250   1.0078250
 NucSpn=           1           1
 AtZEff=   0.0000000   0.0000000
 NQMom=    0.0000000   0.0000000
 NMagM=    2.7928460   2.7928460
 AtZNuc=   1.0000000   1.0000000
 Leave Link  101 at Sat Dec 13 12:25:11 2025, MaxMem=   536870912 cpu:               1.0 elap:               0.3
 (Enter D:\G16W\l103.exe)

 GradGradGradGradGradGradGradGradGradGradGradGradGradGradGradGradGradGrad
 Berny optimization.
 Initialization pass.
                           ----------------------------
                           !    Initial Parameters    !
                           ! (Angstroms and Degrees)  !
 --------------------------                            --------------------------
 ! Name  Definition              Value          Derivative Info.                !
 --------------------------------------------------------------------------------
 ! R1    R(1,2)                  1.4878         calculate D2E/DX2 analytically  !
 ! R2    R(1,3)                  1.1061         calculate D2E/DX2 analytically  !
 ! R3    R(1,4)                  1.1016         calculate D2E/DX2 analytically  !
 ! R4    R(1,5)                  1.1061         calculate D2E/DX2 analytically  !
 ! R5    R(2,6)                  1.02           calculate D2E/DX2 analytically  !
 ! R6    R(2,7)                  1.02           calculate D2E/DX2 analytically  !
 ! R7    R(2,8)                  1.84           calculate D2E/DX2 analytically  !
 ! R8    R(8,9)                  2.7332         calculate D2E/DX2 analytically  !
 ! R9    R(8,10)                 1.0858         calculate D2E/DX2 analytically  !
 ! R10   R(8,11)                 1.0863         calculate D2E/DX2 analytically  !
 ! R11   R(8,12)                 1.0859         calculate D2E/DX2 analytically  !
 ! R12   R(9,10)                 2.8185         calculate D2E/DX2 analytically  !
 ! R13   R(9,11)                 2.8257         calculate D2E/DX2 analytically  !
 ! R14   R(9,12)                 2.8189         calculate D2E/DX2 analytically  !
 ! A1    A(2,1,3)              110.242          calculate D2E/DX2 analytically  !
 ! A2    A(2,1,4)              112.6632         calculate D2E/DX2 analytically  !
 ! A3    A(2,1,5)              110.2429         calculate D2E/DX2 analytically  !
 ! A4    A(3,1,4)              108.1205         calculate D2E/DX2 analytically  !
 ! A5    A(3,1,5)              107.2672         calculate D2E/DX2 analytically  !
 ! A6    A(4,1,5)              108.1229         calculate D2E/DX2 analytically  !
 ! A7    A(1,2,6)              111.3139         calculate D2E/DX2 analytically  !
 ! A8    A(1,2,7)              111.3139         calculate D2E/DX2 analytically  !
 ! A9    A(1,2,8)              109.5316         calculate D2E/DX2 analytically  !
 ! A10   A(6,2,7)              108.6089         calculate D2E/DX2 analytically  !
 ! A11   A(6,2,8)              107.9783         calculate D2E/DX2 analytically  !
 ! A12   A(7,2,8)              107.9773         calculate D2E/DX2 analytically  !
 ! A13   A(2,8,10)              96.8529         calculate D2E/DX2 analytically  !
 ! A14   A(2,8,11)              96.3663         calculate D2E/DX2 analytically  !
 ! A15   A(2,8,12)              96.8576         calculate D2E/DX2 analytically  !
 ! A16   A(10,8,11)            118.6882         calculate D2E/DX2 analytically  !
 ! A17   A(10,8,12)            118.623          calculate D2E/DX2 analytically  !
 ! A18   A(11,8,12)            118.6723         calculate D2E/DX2 analytically  !
 ! A19   A(10,9,11)             38.6663         calculate D2E/DX2 analytically  !
 ! A20   A(10,9,12)             38.6932         calculate D2E/DX2 analytically  !
 ! A21   A(11,9,12)             38.6605         calculate D2E/DX2 analytically  !
 ! A22   L(2,8,9,10,-1)        180.0252         calculate D2E/DX2 analytically  !
 ! A23   L(2,8,9,10,-2)        180.0733         calculate D2E/DX2 analytically  !
 ! D1    D(3,1,2,6)             60.2178         calculate D2E/DX2 analytically  !
 ! D2    D(3,1,2,7)           -178.4559         calculate D2E/DX2 analytically  !
 ! D3    D(3,1,2,8)            -59.1197         calculate D2E/DX2 analytically  !
 ! D4    D(4,1,2,6)            -60.6597         calculate D2E/DX2 analytically  !
 ! D5    D(4,1,2,7)             60.6665         calculate D2E/DX2 analytically  !
 ! D6    D(4,1,2,8)           -179.9972         calculate D2E/DX2 analytically  !
 ! D7    D(5,1,2,6)            178.459          calculate D2E/DX2 analytically  !
 ! D8    D(5,1,2,7)            -60.2147         calculate D2E/DX2 analytically  !
 ! D9    D(5,1,2,8)             59.1215         calculate D2E/DX2 analytically  !
 ! D10   D(1,2,8,10)           -60.0369         calculate D2E/DX2 analytically  !
 ! D11   D(1,2,8,11)           179.9693         calculate D2E/DX2 analytically  !
 ! D12   D(1,2,8,12)            59.9909         calculate D2E/DX2 analytically  !
 ! D13   D(6,2,8,10)           178.5919         calculate D2E/DX2 analytically  !
 ! D14   D(6,2,8,11)            58.5981         calculate D2E/DX2 analytically  !
 ! D15   D(6,2,8,12)           -61.3803         calculate D2E/DX2 analytically  !
 ! D16   D(7,2,8,10)            61.3337         calculate D2E/DX2 analytically  !
 ! D17   D(7,2,8,11)           -58.6601         calculate D2E/DX2 analytically  !
 ! D18   D(7,2,8,12)          -178.6385         calculate D2E/DX2 analytically  !
 ! D19   D(8,9,10,11)          -31.9712         calculate D2E/DX2 analytically  !
 ! D20   D(8,9,10,12)           31.9922         calculate D2E/DX2 analytically  !
 ! D21   D(8,9,11,12)          -32.028          calculate D2E/DX2 analytically  !
 --------------------------------------------------------------------------------
 Trust Radius=3.00D-01 FncErr=1.00D-07 GrdErr=1.00D-07 EigMax=2.50D+02 EigMin=1.00D-04
 Number of steps in this run=     68 maximum allowed number of steps=    100.
 Search for a saddle point of order  1.
 GradGradGradGradGradGradGradGradGradGradGradGradGradGradGradGradGradGrad

 Leave Link  103 at Sat Dec 13 12:25:11 2025, MaxMem=   536870912 cpu:               0.0 elap:               0.1
 (Enter D:\G16W\l202.exe)
                          Input orientation:                          
 ---------------------------------------------------------------------
 Center     Atomic      Atomic             Coordinates (Angstroms)
 Number     Number       Type             X           Y           Z
 ---------------------------------------------------------------------
      1          6           0       -3.812171   -0.701319    0.000000
      2          7           0       -3.117241    0.614159    0.000126
      3          1           0       -3.520104   -1.288332   -0.890809
      4          1           0       -4.909238   -0.601806    0.000135
      5          1           0       -3.519870   -1.288644    0.890522
      6          1           0       -3.355861    1.159612   -0.828143
      7          1           0       -3.355591    1.159309    0.828665
      8          6           0       -1.296583    0.348078   -0.000198
      9         53           0        1.408446   -0.043605    0.000014
     10          1           0       -1.246102   -0.203606    0.933697
     11          1           0       -1.021275    1.398911   -0.000634
     12          1           0       -1.246406   -0.204030   -0.933867
 ---------------------------------------------------------------------
                    Distance matrix (angstroms):
                    1          2          3          4          5
     1  C    0.000000
     2  N    1.487753   0.000000
     3  H    1.106087   2.139050   0.000000
     4  H    1.101571   2.165600   1.787398   0.000000
     5  H    1.106083   2.139059   1.781331   1.787422   0.000000
     6  H    2.087368   1.020043   2.454248   2.490305   2.995775
     7  H    2.087364   1.020037   2.995764   2.490343   2.454239
     8  C    2.725696   1.839999   2.900874   3.735446   2.900904
     9  I    5.261885   4.573237   5.160767   6.342296   5.160564
    10  H    2.775647   2.245319   3.110713   3.801140   2.519760
    11  H    3.492859   2.238059   3.775955   4.372542   3.776253
    12  H    2.775348   2.245395   2.519378   3.800911   3.110212
                    6          7          8          9         10
     6  H    0.000000
     7  H    1.656808   0.000000
     8  C    2.363198   2.363181   0.000000
     9  I    4.983191   4.982942   2.733239   0.000000
    10  H    3.068147   2.513665   1.085847   2.818508   0.000000
    11  H    2.488439   2.488810   1.086299   2.825668   1.868578
    12  H    2.514060   3.068204   1.085854   2.818884   1.867564
                   11         12
    11  H    0.000000
    12  H    1.868429   0.000000
 Stoichiometry    C2H8IN
 Framework group  C1[X(C2H8IN)]
 Deg. of freedom    30
 Full point group                 C1      NOp   1
 Largest Abelian subgroup         C1      NOp   1
 Largest concise Abelian subgroup C1      NOp   1
                         Standard orientation:                         
 ---------------------------------------------------------------------
 Center     Atomic      Atomic             Coordinates (Angstroms)
 Number     Number       Type             X           Y           Z
 ---------------------------------------------------------------------
      1          6           0        3.812171   -0.701319    0.000000
      2          7           0        3.117241    0.614159   -0.000126
      3          1           0        3.520104   -1.288332    0.890809
      4          1           0        4.909238   -0.601806   -0.000135
      5          1           0        3.519870   -1.288644   -0.890522
      6          1           0        3.355861    1.159612    0.828143
      7          1           0        3.355591    1.159309   -0.828665
      8          6           0        1.296583    0.348078    0.000198
      9         53           0       -1.408446   -0.043605   -0.000014
     10          1           0        1.246102   -0.203606   -0.933697
     11          1           0        1.021275    1.398911    0.000634
     12          1           0        1.246406   -0.204030    0.933867
 ---------------------------------------------------------------------
 Rotational constants (GHZ):          19.3925757           0.7799153           0.7604567
 Leave Link  202 at Sat Dec 13 12:25:11 2025, MaxMem=   536870912 cpu:               0.0 elap:               0.1
 (Enter D:\G16W\l301.exe)
 Standard basis: VSTO-6G (5D, 7F)
 Ernie: Thresh=  0.10000D-02 Tol=  0.10000D-05 Strict=F.
 EHB=         0.000000000 Number of Hydrogen Bonds=     0
  NNHCO=     0 NNPyr=     0 NCTC=     0               EPep=         0.000000000
    EC=        62.530610199  ECS=         1.699719869   EG=         0.307053956
   EHC=         0.000428893  EAt=       -26.623642591  AtH=         1.429640566
 EPDDG=         0.000000000  ECC=        64.537812917 EAtT=        28.053283157
  EHyb=         0.000000000
 There are    30 symmetry adapted cartesian basis functions of A   symmetry.
 There are    29 symmetry adapted basis functions of A   symmetry.
    29 basis functions,   180 primitive gaussians,    30 cartesian basis functions
    14 alpha electrons       14 beta electrons
       nuclear repulsion energy        92.5910960734 Hartrees.
 IExCor=    0 DFT=F Ex=HF Corr=None ExCW=0 ScaHFX=  1.000000
 ScaDFX=  1.000000  1.000000  1.000000  1.000000 ScalE2=  1.000000  1.000000
 IRadAn=      5 IRanWt=     -1 IRanGd=            0 ICorTp=0 IEmpDi=251
 Integral buffers will be    131072 words long.
 Regular integral format.
 Two-electron integral symmetry is turned off.
 R6Disp:  PM7 Dispersion energy=       -0.0013097184 Hartrees.
 Nuclear repulsion after empirical dispersion term =       92.5897863551 Hartrees.
 Leave Link  301 at Sat Dec 13 12:25:11 2025, MaxMem=   536870912 cpu:               0.0 elap:               0.1
 (Enter D:\G16W\l302.exe)
 Do NDO integrals.
 NPDir=0 NMtPBC=     1 NCelOv=     1 NCel=       1 NClECP=     1 NCelD=      1
         NCelK=      1 NCelE2=     1 NClLst=     1 CellRange=     0.0.
 One-electron integrals computed using PRISM.
 NBasis=    29 RedAO= F EigKep=  0.00D+00  NBF=    29
 NBsUse=    29 1.00D-04 EigRej=  0.00D+00 NBFU=    29
 Leave Link  302 at Sat Dec 13 12:25:11 2025, MaxMem=   536870912 cpu:               0.0 elap:               0.2
 (Enter D:\G16W\l303.exe)
 DipDrv:  MaxL=1.
 Leave Link  303 at Sat Dec 13 12:25:12 2025, MaxMem=   536870912 cpu:               1.0 elap:               0.1
 (Enter D:\G16W\l401.exe)
 Nonelectrostatic core Hamiltonian diagonalized for initial guess.
 JPrj=0 DoOrth=F DoCkMO=F.
 Leave Link  401 at Sat Dec 13 12:25:12 2025, MaxMem=   536870912 cpu:               0.0 elap:               0.1
 (Enter D:\G16W\l502.exe)
 Keep J ints in memory in canonical form, NReq=1850463.
 FoFCou: FMM=F IPFlag=           0 FMFlag=           0 FMFlg1=           0
         NFxFlg=           0 DoJE=F BraDBF=F KetDBF=F FulRan=T
         wScrn=  0.000000 ICntrl=       600 IOpCl=  2 I1Cent=           0 NGrid=           0
         NMat0=    1 NMatS0=     83 NMatT0=    0 NMatD0=    1 NMtDS0=    0 NMtDT0=    0
 Symmetry not used in FoFCou.
 Two-electron integral symmetry not used.
 Closed shell SCF:
 Using DIIS extrapolation, IDIIS=  1040.
 Overlap will be assumed to be unity.
 NGot=   536870912 LenX=   536805852 LenY=   536804511
 Requested convergence on RMS density matrix=1.00D-08 within 128 cycles.
 Requested convergence on MAX density matrix=1.00D-06.
 Requested convergence on             energy=1.00D-06.
 No special actions if energy rises.

 Cycle   1  Pass 1  IDiag  1:
 E= 0.434253447572147    
 DIIS: error= 3.90D-02 at cycle   1 NSaved=   1.
 NSaved= 1 IEnMin= 1 EnMin= 0.434253447572147     IErMin= 1 ErrMin= 3.90D-02
 ErrMax= 3.90D-02  0.00D+00 EMaxC= 1.00D-01 BMatC= 7.14D-02 BMatP= 7.14D-02
 IDIUse=3 WtCom= 6.10D-01 WtEn= 3.90D-01
 Coeff-Com:  0.100D+01
 Coeff-En:   0.100D+01
 Coeff:      0.100D+01
 GapD=    2.000 DampG=2.000 DampE=0.500 DampFc=1.0000 IDamp=-1.
 RMSDP=2.02D-02 MaxDP=1.59D-01              OVMax= 0.00D+00

 Cycle   2  Pass 1  IDiag  1:
 E= 0.130933667442150     Delta-E=       -0.303319780130 Rises=F Damp=F
 DIIS: error= 1.97D-02 at cycle   2 NSaved=   2.
 NSaved= 2 IEnMin= 2 EnMin= 0.130933667442150     IErMin= 2 ErrMin= 1.97D-02
 ErrMax= 1.97D-02  0.00D+00 EMaxC= 1.00D-01 BMatC= 1.53D-02 BMatP= 7.14D-02
 IDIUse=3 WtCom= 8.03D-01 WtEn= 1.97D-01
 Coeff-Com: -0.628D+00 0.163D+01
 Coeff-En:   0.000D+00 0.100D+01
 Coeff:     -0.504D+00 0.150D+01
 RMSDP=1.37D-02 MaxDP=1.08D-01 DE=-3.03D-01 OVMax= 0.00D+00

 Cycle   3  Pass 1  IDiag  3:
 E= 0.487611670572221E-01 Delta-E=       -0.082172500385 Rises=F Damp=F
 DIIS: error= 5.96D-03 at cycle   3 NSaved=   3.
 NSaved= 3 IEnMin= 3 EnMin= 0.487611670572221E-01 IErMin= 3 ErrMin= 5.96D-03
 ErrMax= 5.96D-03  0.00D+00 EMaxC= 1.00D-01 BMatC= 1.11D-03 BMatP= 1.53D-02
 IDIUse=3 WtCom= 9.40D-01 WtEn= 5.96D-02
 Coeff-Com:  0.349D-01-0.331D+00 0.130D+01
 Coeff-En:   0.000D+00 0.000D+00 0.100D+01
 Coeff:      0.329D-01-0.312D+00 0.128D+01
 Gap=     0.264 Goal=   None    Shift=    0.000
 RMSDP=4.22D-03 MaxDP=3.28D-02 DE=-8.22D-02 OVMax= 4.94D-02

 Cycle   4  Pass 1  IDiag  3:
 E= 0.423641701480761E-01 Delta-E=       -0.006396996909 Rises=F Damp=F
 DIIS: error= 1.78D-03 at cycle   4 NSaved=   4.
 NSaved= 4 IEnMin= 4 EnMin= 0.423641701480761E-01 IErMin= 4 ErrMin= 1.78D-03
 ErrMax= 1.78D-03  0.00D+00 EMaxC= 1.00D-01 BMatC= 8.80D-05 BMatP= 1.11D-03
 IDIUse=3 WtCom= 9.82D-01 WtEn= 1.78D-02
 Coeff-Com:  0.474D-01-0.902D-01-0.223D+00 0.127D+01
 Coeff-En:   0.000D+00 0.000D+00 0.000D+00 0.100D+01
 Coeff:      0.465D-01-0.886D-01-0.219D+00 0.126D+01
 Gap=     0.259 Goal=   None    Shift=    0.000
 RMSDP=1.24D-03 MaxDP=9.59D-03 DE=-6.40D-03 OVMax= 1.56D-02

 Cycle   5  Pass 1  IDiag  3:
 E= 0.418540204008337E-01 Delta-E=       -0.000510149747 Rises=F Damp=F
 DIIS: error= 5.58D-04 at cycle   5 NSaved=   5.
 NSaved= 5 IEnMin= 5 EnMin= 0.418540204008337E-01 IErMin= 5 ErrMin= 5.58D-04
 ErrMax= 5.58D-04  0.00D+00 EMaxC= 1.00D-01 BMatC= 7.91D-06 BMatP= 8.80D-05
 IDIUse=3 WtCom= 9.94D-01 WtEn= 5.58D-03
 Coeff-Com: -0.187D-01 0.419D-01 0.509D-01-0.624D+00 0.155D+01
 Coeff-En:   0.000D+00 0.000D+00 0.000D+00 0.000D+00 0.100D+01
 Coeff:     -0.186D-01 0.416D-01 0.506D-01-0.620D+00 0.155D+01
 Gap=     0.257 Goal=   None    Shift=    0.000
 RMSDP=3.92D-04 MaxDP=3.33D-03 DE=-5.10D-04 OVMax= 2.63D-03

 Cycle   6  Pass 1  IDiag  3:
 E= 0.418066530306618E-01 Delta-E=       -0.000047367370 Rises=F Damp=F
 DIIS: error= 7.33D-05 at cycle   6 NSaved=   6.
 NSaved= 6 IEnMin= 6 EnMin= 0.418066530306618E-01 IErMin= 6 ErrMin= 7.33D-05
 ErrMax= 7.33D-05  0.00D+00 EMaxC= 1.00D-01 BMatC= 3.01D-07 BMatP= 7.91D-06
 IDIUse=1 WtCom= 1.00D+00 WtEn= 0.00D+00
 Coeff-Com:  0.104D-02-0.432D-03-0.706D-02 0.628D-01-0.309D+00 0.125D+01
 Coeff:      0.104D-02-0.432D-03-0.706D-02 0.628D-01-0.309D+00 0.125D+01
 Gap=     0.257 Goal=   None    Shift=    0.000
 RMSDP=6.92D-05 MaxDP=5.59D-04 DE=-4.74D-05 OVMax= 4.86D-04

 Cycle   7  Pass 1  IDiag  3:
 E= 0.418049523753012E-01 Delta-E=       -0.000001700655 Rises=F Damp=F
 DIIS: error= 2.13D-05 at cycle   7 NSaved=   7.
 NSaved= 7 IEnMin= 7 EnMin= 0.418049523753012E-01 IErMin= 7 ErrMin= 2.13D-05
 ErrMax= 2.13D-05  0.00D+00 EMaxC= 1.00D-01 BMatC= 1.97D-08 BMatP= 3.01D-07
 IDIUse=1 WtCom= 1.00D+00 WtEn= 0.00D+00
 Coeff-Com:  0.650D-03-0.196D-02-0.102D-02 0.624D-02 0.489D-01-0.481D+00
 Coeff-Com:  0.143D+01
 Coeff:      0.650D-03-0.196D-02-0.102D-02 0.624D-02 0.489D-01-0.481D+00
 Coeff:      0.143D+01
 Gap=     0.257 Goal=   None    Shift=    0.000
 RMSDP=1.79D-05 MaxDP=1.43D-04 DE=-1.70D-06 OVMax= 1.54D-04

 Cycle   8  Pass 1  IDiag  3:
 E= 0.418048386490568E-01 Delta-E=       -0.000000113726 Rises=F Damp=F
 DIIS: error= 6.46D-06 at cycle   8 NSaved=   8.
 NSaved= 8 IEnMin= 8 EnMin= 0.418048386490568E-01 IErMin= 8 ErrMin= 6.46D-06
 ErrMax= 6.46D-06  0.00D+00 EMaxC= 1.00D-01 BMatC= 1.24D-09 BMatP= 1.97D-08
 IDIUse=1 WtCom= 1.00D+00 WtEn= 0.00D+00
 Coeff-Com: -0.219D-03 0.598D-03 0.749D-03-0.435D-02-0.746D-02 0.145D+00
 Coeff-Com: -0.630D+00 0.150D+01
 Coeff:     -0.219D-03 0.598D-03 0.749D-03-0.435D-02-0.746D-02 0.145D+00
 Coeff:     -0.630D+00 0.150D+01
 Gap=     0.257 Goal=   None    Shift=    0.000
 RMSDP=4.95D-06 MaxDP=3.57D-05 DE=-1.14D-07 OVMax= 4.96D-05

 Cycle   9  Pass 1  IDiag  3:
 E= 0.418048313140247E-01 Delta-E=       -0.000000007335 Rises=F Damp=F
 DIIS: error= 1.24D-06 at cycle   9 NSaved=   9.
 NSaved= 9 IEnMin= 9 EnMin= 0.418048313140247E-01 IErMin= 9 ErrMin= 1.24D-06
 ErrMax= 1.24D-06  0.00D+00 EMaxC= 1.00D-01 BMatC= 4.71D-11 BMatP= 1.24D-09
 IDIUse=1 WtCom= 1.00D+00 WtEn= 0.00D+00
 Coeff-Com:  0.296D-04-0.546D-04-0.308D-03 0.103D-02 0.105D-02-0.292D-01
 Coeff-Com:  0.155D+00-0.512D+00 0.138D+01
 Coeff:      0.296D-04-0.546D-04-0.308D-03 0.103D-02 0.105D-02-0.292D-01
 Coeff:      0.155D+00-0.512D+00 0.138D+01
 Gap=     0.257 Goal=   None    Shift=    0.000
 RMSDP=8.28D-07 MaxDP=6.40D-06 DE=-7.34D-09 OVMax= 6.34D-06

 Cycle  10  Pass 1  IDiag  3:
 E= 0.418048310719001E-01 Delta-E=       -0.000000000242 Rises=F Damp=F
 DIIS: error= 1.73D-07 at cycle  10 NSaved=  10.
 NSaved=10 IEnMin=10 EnMin= 0.418048310719001E-01 IErMin=10 ErrMin= 1.73D-07
 ErrMax= 1.73D-07  0.00D+00 EMaxC= 1.00D-01 BMatC= 1.52D-12 BMatP= 4.71D-11
 IDIUse=1 WtCom= 1.00D+00 WtEn= 0.00D+00
 Coeff-Com:  0.342D-05-0.154D-04 0.643D-04-0.446D-04-0.486D-03 0.485D-02
 Coeff-Com: -0.269D-01 0.104D+00-0.421D+00 0.134D+01
 Coeff:      0.342D-05-0.154D-04 0.643D-04-0.446D-04-0.486D-03 0.485D-02
 Coeff:     -0.269D-01 0.104D+00-0.421D+00 0.134D+01
 Gap=     0.257 Goal=   None    Shift=    0.000
 RMSDP=1.52D-07 MaxDP=1.26D-06 DE=-2.42D-10 OVMax= 1.06D-06

 Cycle  11  Pass 1  IDiag  3:
 E= 0.418048310627483E-01 Delta-E=       -0.000000000009 Rises=F Damp=F
 DIIS: error= 3.64D-08 at cycle  11 NSaved=  11.
 NSaved=11 IEnMin=11 EnMin= 0.418048310627483E-01 IErMin=11 ErrMin= 3.64D-08
 ErrMax= 3.64D-08  0.00D+00 EMaxC= 1.00D-01 BMatC= 5.30D-14 BMatP= 1.52D-12
 IDIUse=1 WtCom= 1.00D+00 WtEn= 0.00D+00
 Coeff-Com: -0.935D-06 0.389D-05-0.127D-04 0.909D-05 0.750D-04-0.712D-03
 Coeff-Com:  0.419D-02-0.178D-01 0.856D-01-0.403D+00 0.133D+01
 Coeff:     -0.935D-06 0.389D-05-0.127D-04 0.909D-05 0.750D-04-0.712D-03
 Coeff:      0.419D-02-0.178D-01 0.856D-01-0.403D+00 0.133D+01
 Gap=     0.257 Goal=   None    Shift=    0.000
 RMSDP=3.20D-08 MaxDP=2.62D-07 DE=-9.15D-12 OVMax= 3.19D-07

 Cycle  12  Pass 1  IDiag  3:
 E= 0.418048310629189E-01 Delta-E=        0.000000000000 Rises=F Damp=F
 DIIS: error= 1.11D-08 at cycle  12 NSaved=  12.
 NSaved=12 IEnMin=11 EnMin= 0.418048310627483E-01 IErMin=12 ErrMin= 1.11D-08
 ErrMax= 1.11D-08  0.00D+00 EMaxC= 1.00D-01 BMatC= 2.10D-15 BMatP= 5.30D-14
 IDIUse=1 WtCom= 1.00D+00 WtEn= 0.00D+00
 Coeff-Com:  0.506D-07-0.190D-06 0.482D-06-0.110D-05 0.170D-05 0.230D-05
 Coeff-Com: -0.109D-03 0.890D-03-0.626D-02 0.493D-01-0.312D+00 0.127D+01
 Coeff:      0.506D-07-0.190D-06 0.482D-06-0.110D-05 0.170D-05 0.230D-05
 Coeff:     -0.109D-03 0.890D-03-0.626D-02 0.493D-01-0.312D+00 0.127D+01
 Gap=     0.257 Goal=   None    Shift=    0.000
 RMSDP=8.17D-09 MaxDP=1.12D-07 DE= 1.71D-13 OVMax= 1.32D-07

 Cycle  13  Pass 2  IDiag  1:
 SCF Done:  E(RPM7) =  0.418048310629E-01 A.U. after   13 cycles
            NFock= 12  Conv=0.82D-08     -V/T= 1.0009
 KE=-4.504198774660D+01 PE=-1.219399307741D+02 EE= 7.443393699674D+01
 Leave Link  502 at Sat Dec 13 12:25:12 2025, MaxMem=   536870912 cpu:               0.0 elap:               0.5
 (Enter D:\G16W\l801.exe)
 Range of M.O.s used for correlation:     1    29
 NBasis=    29 NAE=    14 NBE=    14 NFC=     0 NFV=     0
 NROrb=     29 NOA=    14 NOB=    14 NVA=    15 NVB=    15
 Leave Link  801 at Sat Dec 13 12:25:13 2025, MaxMem=   536870912 cpu:               1.0 elap:               0.1
 (Enter D:\G16W\l1101.exe)
 Using compressed storage, NAtomX=    12.
 Will process     13 centers per pass.
 R6Disp: Adding PM7 dispersion energy 1st derivatives to the gradient.
 Leave Link 1101 at Sat Dec 13 12:25:13 2025, MaxMem=   536870912 cpu:               0.0 elap:               0.1
 (Enter D:\G16W\l1102.exe)
 Symmetrizing basis deriv contribution to polar:
 IMax=3 JMax=2 DiffMx= 0.00D+00
 Leave Link 1102 at Sat Dec 13 12:25:13 2025, MaxMem=   536870912 cpu:               0.0 elap:               0.1
 (Enter D:\G16W\l1110.exe)
 Forming Gx(P) for the SCF density, NAtomX=    12.
 Integral derivatives from FoFJK, PRISM(SPDF).
 Do as many integral derivatives as possible in FoFJK.
 G2DrvN: MDV=     536811012.
 G2DrvN: will do    13 centers at a time, making    1 passes.
 Calling FoFCou, ICntrl=  3107 FMM=F I1Cent=   0 AccDes= 0.00D+00.
 FoFJK:  IHMeth=43 ICntrl=    3107 DoSepK=F KAlg= 0 I1Cent=           0 FoldK=F
 IRaf=         0 NMat=       1 IRICut=       1 DoRegI=T DoRafI=F ISym2E= 0 IDoP0=3 IntGTp=3.
 FoFCou: FMM=F IPFlag=           0 FMFlag=      100000 FMFlg1=           0
         NFxFlg=           0 DoJE=F BraDBF=F KetDBF=F FulRan=T
         wScrn=  0.000000 ICntrl=      3107 IOpCl=  0 I1Cent=           0 NGrid=           0
         NMat0=    1 NMatS0=      1 NMatT0=    0 NMatD0=    1 NMtDS0=    0 NMtDT0=    0
 Symmetry not used in FoFCou.
 End of G2Drv F.D. properties file   721 does not exist.
 End of G2Drv F.D. properties file   722 does not exist.
 End of G2Drv F.D. properties file   788 does not exist.
 Leave Link 1110 at Sat Dec 13 12:25:14 2025, MaxMem=   536870912 cpu:               1.0 elap:               0.2
 (Enter D:\G16W\l1002.exe)
 Minotr:  Closed shell wavefunction.
          IDoAtm=111111111111
          Direct CPHF calculation.
          Differentiating once with respect to electric field.
                with respect to dipole field.
          Differentiating once with respect to nuclear coordinates.
          Electric field/nuclear overlap derivatives assumed to be zero.
          Requested convergence is 1.0D-08 RMS, and 1.0D-07 maximum.
          NewPWx=T KeepS1=F KeepF1=F KeepIn=T MapXYZ=F SortEE=F KeepMc=T.
 Keep J ints in memory in canonical form, NReq=1851676.
 FoFCou: FMM=F IPFlag=           0 FMFlag=           0 FMFlg1=           0
         NFxFlg=           0 DoJE=F BraDBF=F KetDBF=F FulRan=T
         wScrn=  0.000000 ICntrl=       600 IOpCl=  2 I1Cent=           0 NGrid=           0
         NMat0=    1 NMatS0=     83 NMatT0=    0 NMatD0=    1 NMtDS0=    0 NMtDT0=    0
 Symmetry not used in FoFCou.
 Two-electron integral symmetry not used.
          MDV=     536870912 using IRadAn=       1.
          Solving linear equations separately, MaxMat=       0.
          There are    39 degrees of freedom in the 1st order CPHF.  IDoFFX=5 NUNeed=    39.
 LinEq1:  Iter=  0 NonCon=    39 RMS=5.73D-01 Max=7.92D+00 NDo=    39
 AX will form    39 AO Fock derivatives at one time.
 LinEq1:  Iter=  1 NonCon=    39 RMS=4.84D-02 Max=2.57D-01 NDo=    39
 LinEq1:  Iter=  2 NonCon=    39 RMS=7.82D-03 Max=4.11D-02 NDo=    39
 LinEq1:  Iter=  3 NonCon=    39 RMS=1.45D-03 Max=7.72D-03 NDo=    39
 LinEq1:  Iter=  4 NonCon=    39 RMS=2.11D-04 Max=1.06D-03 NDo=    39
 LinEq1:  Iter=  5 NonCon=    39 RMS=3.60D-05 Max=1.87D-04 NDo=    39
 LinEq1:  Iter=  6 NonCon=    38 RMS=4.83D-06 Max=2.27D-05 NDo=    39
 LinEq1:  Iter=  7 NonCon=    17 RMS=7.22D-07 Max=3.09D-06 NDo=    39
 LinEq1:  Iter=  8 NonCon=     3 RMS=1.09D-07 Max=5.72D-07 NDo=    39
 LinEq1:  Iter=  9 NonCon=     2 RMS=2.12D-08 Max=1.62D-07 NDo=    39
 LinEq1:  Iter= 10 NonCon=     0 RMS=3.62D-09 Max=3.43D-08 NDo=    39
 Linear equations converged to 1.000D-08 1.000D-07 after    10 iterations.
 FullF1:  Do perturbations      1 to       3.
 Isotropic polarizability for W=    0.000000       62.58 Bohr**3.
 End of Minotr F.D. properties file   721 does not exist.
 End of Minotr F.D. properties file   722 does not exist.
 End of Minotr F.D. properties file   788 does not exist.
 Leave Link 1002 at Sat Dec 13 12:25:14 2025, MaxMem=   536870912 cpu:               0.0 elap:               0.4
 (Enter D:\G16W\l601.exe)
 Copying SCF densities to generalized density rwf, IOpCl= 0 IROHF=0.

 **********************************************************************

            Population analysis using the SCF density.

 **********************************************************************

 Orbital symmetries:
       Occupied  (A) (A) (A) (A) (A) (A) (A) (A) (A) (A) (A) (A)
                 (A) (A)
       Virtual   (A) (A) (A) (A) (A) (A) (A) (A) (A) (A) (A) (A)
                 (A) (A) (A)
 The electronic state is 1-A.
 Alpha  occ. eigenvalues --   -1.41245  -0.95567  -0.93833  -0.73480  -0.70482
 Alpha  occ. eigenvalues --   -0.67105  -0.60783  -0.56263  -0.56035  -0.54931
 Alpha  occ. eigenvalues --   -0.50643  -0.28602  -0.28367  -0.28365
 Alpha virt. eigenvalues --   -0.02652   0.04579   0.11417   0.12352   0.13359
 Alpha virt. eigenvalues --    0.15320   0.16355   0.17386   0.17555   0.17757
 Alpha virt. eigenvalues --    4.84542   4.84543   4.84656   4.85506   4.85507
          Condensed to atoms (all electrons):
               1          2          3          4          5          6
     1  C    4.310924   0.000000   0.000000   0.000000   0.000000   0.000000
     2  N    0.000000   5.413980   0.000000   0.000000   0.000000   0.000000
     3  H    0.000000   0.000000   0.822100   0.000000   0.000000   0.000000
     4  H    0.000000   0.000000   0.000000   0.847530   0.000000   0.000000
     5  H    0.000000   0.000000   0.000000   0.000000   0.822093   0.000000
     6  H    0.000000   0.000000   0.000000   0.000000   0.000000   0.728949
     7  H    0.000000   0.000000   0.000000   0.000000   0.000000   0.000000
     8  C    0.000000   0.000000   0.000000   0.000000   0.000000   0.000000
     9  I    0.000000   0.000000   0.000000   0.000000   0.000000   0.000000
    10  H    0.000000   0.000000   0.000000   0.000000   0.000000   0.000000
    11  H    0.000000   0.000000   0.000000   0.000000   0.000000   0.000000
    12  H    0.000000   0.000000   0.000000   0.000000   0.000000   0.000000
               7          8          9         10         11         12
     1  C    0.000000   0.000000   0.000000   0.000000   0.000000   0.000000
     2  N    0.000000   0.000000   0.000000   0.000000   0.000000   0.000000
     3  H    0.000000   0.000000   0.000000   0.000000   0.000000   0.000000
     4  H    0.000000   0.000000   0.000000   0.000000   0.000000   0.000000
     5  H    0.000000   0.000000   0.000000   0.000000   0.000000   0.000000
     6  H    0.000000   0.000000   0.000000   0.000000   0.000000   0.000000
     7  H    0.728942   0.000000   0.000000   0.000000   0.000000   0.000000
     8  C    0.000000   4.050474   0.000000   0.000000   0.000000   0.000000
     9  I    0.000000   0.000000   7.744025   0.000000   0.000000   0.000000
    10  H    0.000000   0.000000   0.000000   0.842731   0.000000   0.000000
    11  H    0.000000   0.000000   0.000000   0.000000   0.845493   0.000000
    12  H    0.000000   0.000000   0.000000   0.000000   0.000000   0.842759
 Mulliken charges:
               1
     1  C   -0.310924
     2  N   -0.413980
     3  H    0.177900
     4  H    0.152470
     5  H    0.177907
     6  H    0.271051
     7  H    0.271058
     8  C   -0.050474
     9  I   -0.744025
    10  H    0.157269
    11  H    0.154507
    12  H    0.157241
 Sum of Mulliken charges =   0.00000
 Mulliken charges with hydrogens summed into heavy atoms:
               1
     1  C    0.197354
     2  N    0.128129
     8  C    0.418542
     9  I   -0.744025
 APT charges:
               1
     1  C   -0.514070
     2  N   -0.936651
     3  H    0.216587
     4  H    0.187285
     5  H    0.216586
     6  H    0.194023
     7  H    0.194026
     8  C    1.488437
     9  I   -1.212271
    10  H    0.053833
    11  H    0.058332
    12  H    0.053877
 Sum of APT charges =  -0.00001
 APT charges with hydrogens summed into heavy atoms:
               1
     1  C    0.106388
     2  N   -0.548602
     8  C    1.654479
     9  I   -1.212271
 Charge=              0.0000 electrons
 Dipole moment (field-independent basis, Debye):
    X=             14.4456    Y=              1.5078    Z=              0.0001  Tot=             14.5240
 N-N= 9.258978635506D+01 E-N=-1.219399307516D+02  KE=-4.504198774660D+01
  Exact polarizability: 142.622  11.399  24.950   0.002   0.001  20.183
 Approx polarizability:  81.757   8.036  17.708   0.001   0.000  14.731
 Leave Link  601 at Sat Dec 13 12:25:14 2025, MaxMem=   536870912 cpu:               0.0 elap:               0.1
 (Enter D:\G16W\l701.exe)
 ... and contract with generalized density number  0.
 Compute integral second derivatives.
 R6Disp: Adding PM7 dispersion energy 2nd derivatives to the Hessian.
 Leave Link  701 at Sat Dec 13 12:25:15 2025, MaxMem=   536870912 cpu:               0.0 elap:               0.2
 (Enter D:\G16W\l702.exe)
 L702 exits ... SP integral derivatives will be done elsewhere.
 Leave Link  702 at Sat Dec 13 12:25:15 2025, MaxMem=   536870912 cpu:               0.0 elap:               0.1
 (Enter D:\G16W\l703.exe)
 Integral derivatives from FoFJK, PRISM(SPDF).
 Compute integral second derivatives, UseDBF=F ICtDFT=           0.
 Calling FoFJK, ICntrl=    100127 FMM=F ISym2X=0 I1Cent= 0 IOpClX= 0 NMat=1 NMatS=1 NMatT=0.
 FoFJK:  IHMeth=43 ICntrl=  100127 DoSepK=F KAlg= 0 I1Cent=           0 FoldK=F
 IRaf=         0 NMat=       1 IRICut=       1 DoRegI=T DoRafI=F ISym2E= 0 IDoP0=3 IntGTp=3.
 FoFCou: FMM=F IPFlag=           0 FMFlag=      100000 FMFlg1=         800
         NFxFlg=           0 DoJE=F BraDBF=F KetDBF=F FulRan=T
         wScrn=  0.000000 ICntrl=    100127 IOpCl=  0 I1Cent=           0 NGrid=           0
         NMat0=    1 NMatS0=      1 NMatT0=    0 NMatD0=    1 NMtDS0=    0 NMtDT0=    0
 Symmetry not used in FoFCou.
 Leave Link  703 at Sat Dec 13 12:25:15 2025, MaxMem=   536870912 cpu:               0.0 elap:               0.1
 (Enter D:\G16W\l716.exe)
 Dipole        = 5.68331745D+00 5.93218789D-01 3.67821162D-05
 Polarizability= 1.42622002D+02 1.13986781D+01 2.49503954D+01
                 2.08310092D-03 7.89189399D-04 2.01825248D+01
 HyperPolar    = 6.34139405D+03 6.49054146D+02 1.25745841D+02
                 2.01523438D+01 3.41525438D-01 3.45112390D-02
                 1.41634187D-02 2.98888586D+01 3.43713390D+00
                -1.02811263D-02
 ***** Axes restored to original set *****
 -------------------------------------------------------------------
 Center     Atomic                   Forces (Hartrees/Bohr)
 Number     Number              X              Y              Z
 -------------------------------------------------------------------
      1        6           0.000013537   -0.000016399   -0.000004350
      2        7           0.006935134   -0.001001015   -0.000006574
      3        1          -0.000001510    0.000002155    0.000003072
      4        1          -0.000000213   -0.000000497    0.000002001
      5        1          -0.000001906    0.000003186   -0.000001521
      6        1          -0.000003690   -0.000001368   -0.000000084
      7        1          -0.000003220    0.000000960    0.000002804
      8        6          -0.006913470    0.001021451   -0.000005607
      9       53          -0.000028333   -0.000001749   -0.000004521
     10        1          -0.000002950    0.000005470    0.000000192
     11        1           0.000004165   -0.000010761    0.000009220
     12        1           0.000002455   -0.000001432    0.000005369
 -------------------------------------------------------------------
 Cartesian Forces:  Max     0.006935134 RMS     0.001649405
 Force constants in Cartesian coordinates: 
                1             2             3             4             5 
      1  0.419505D+00
      2  0.184110D-01  0.451877D+00
      3  0.725687D-05  0.000000D+00  0.421679D+00
      4 -0.109474D+00 -0.558640D-01 -0.602767D-05  0.267878D+00
      5 -0.806210D-01 -0.189435D+00 -0.655963D-05  0.595122D-01  0.513351D+00
      6 -0.106727D-04 -0.109341D-04 -0.815444D-01  0.439379D-04  0.280746D-05
      7 -0.512458D-01  0.270182D-01  0.407585D-01  0.511001D-02 -0.113303D-01
      8  0.227624D-01 -0.798538D-01 -0.649098D-01 -0.420933D-04 -0.356904D-01
      9  0.377768D-01 -0.743205D-01 -0.151132D+00 -0.289056D-02 -0.126867D-01
     10 -0.205051D+00  0.169755D-01  0.207664D-04 -0.281372D-01 -0.173162D-01
     11  0.266394D-01 -0.389814D-01 -0.278649D-05 -0.367781D-01 -0.109820D-01
     12  0.230119D-04 -0.151194D-05 -0.384194D-01 -0.241508D-05  0.000000D+00
     13 -0.512675D-01  0.270518D-01 -0.407755D-01  0.511351D-02 -0.113305D-01
     14  0.227930D-01 -0.799033D-01  0.649297D-01 -0.352315D-04 -0.357038D-01
     15 -0.377955D-01  0.743395D-01 -0.151064D+00  0.288845D-02  0.126774D-01
     16  0.362933D-02 -0.133503D-01  0.163953D-01 -0.588229D-01  0.297242D-01
     17  0.136560D-02 -0.330642D-01  0.293321D-01  0.167492D-01 -0.103064D+00
     18  0.452949D-02  0.111285D-01 -0.114958D-04 -0.292455D-01  0.673335D-01
     19  0.362251D-02 -0.133481D-01 -0.164013D-01 -0.587963D-01  0.296842D-01
     20  0.135737D-02 -0.330499D-01 -0.293448D-01  0.167150D-01 -0.103013D+00
     21 -0.453012D-02 -0.111362D-01 -0.193576D-04  0.292171D-01 -0.673217D-01
     22  0.157681D-02 -0.731160D-02 -0.175065D-05  0.827986D-01 -0.130064D-01
     23 -0.145066D-01  0.241299D-02  0.248497D-05 -0.145886D-01 -0.319171D-01
     24 -0.117762D-05  0.118378D-05  0.128626D-02 -0.139061D-04  0.146655D-05
     25 -0.386457D-02  0.577592D-03  0.000000D+00 -0.252245D-01  0.333815D-02
     26  0.700029D-03 -0.456028D-04  0.000000D+00  0.383077D-02  0.121432D-02
     27  0.000000D+00  0.000000D+00  0.297458D-03 -0.230183D-05  0.000000D+00
     28 -0.210137D-02 -0.326377D-03 -0.539932D-03 -0.250420D-01  0.129261D-01
     29  0.547107D-04  0.498460D-04  0.120604D-03  0.841424D-02 -0.232680D-02
     30 -0.310314D-03 -0.187502D-03 -0.525039D-03 -0.807689D-02  0.299148D-02
     31 -0.322784D-02  0.493355D-03  0.000000D+00 -0.303798D-01 -0.145111D-01
     32  0.989291D-03 -0.581395D-04  0.000000D+00 -0.632537D-02 -0.103939D-03
     33  0.000000D+00  0.000000D+00 -0.216855D-04  0.874373D-05  0.354746D-05
     34 -0.210134D-02 -0.326926D-03  0.541086D-03 -0.250241D-01  0.129309D-01
     35  0.546541D-04  0.501733D-04 -0.120235D-03  0.841257D-02 -0.232987D-02
     36  0.311613D-03  0.187766D-03 -0.525235D-03  0.807942D-02 -0.299497D-02
                6             7             8             9            10 
      6  0.456211D+00
      7 -0.112378D-01  0.538560D-01
      8 -0.286914D-01 -0.222149D-01  0.113549D+00
      9 -0.158104D-02 -0.451591D-01  0.947831D-01  0.177096D+00
     10  0.101404D-05 -0.122176D-01  0.685061D-02  0.700610D-02  0.257786D+00
     11  0.217794D-05  0.119860D-01  0.392014D-03 -0.337073D-02 -0.117754D-01
     12  0.347714D-02  0.194982D-01 -0.644474D-02 -0.614861D-03 -0.273047D-04
     13  0.112322D-01  0.596466D-02 -0.192481D-02  0.401649D-02 -0.122235D-01
     14  0.286793D-01 -0.192469D-02  0.687658D-02 -0.512055D-02  0.685414D-02
     15 -0.157044D-02 -0.402509D-02  0.513210D-02 -0.250368D-01 -0.700044D-02
     16 -0.511213D-01  0.754153D-03  0.518412D-03  0.981602D-04  0.206430D-03
     17  0.739982D-01 -0.210822D-03 -0.180350D-02  0.436788D-03 -0.503884D-03
     18 -0.169322D+00 -0.457040D-05  0.534523D-04  0.964197D-03  0.725352D-03
     19  0.510978D-01 -0.124520D-02 -0.261270D-02  0.822716D-03  0.205978D-03
     20 -0.739823D-01 -0.236125D-02 -0.376195D-02  0.317746D-03 -0.503711D-03
     21 -0.169401D+00  0.484976D-03  0.301715D-03  0.168402D-03 -0.725491D-03
     22 -0.225407D-04 -0.700201D-03 -0.492724D-02 -0.274202D-02 -0.829805D-03
     23  0.341651D-05 -0.248614D-03  0.583622D-03  0.377370D-03 -0.378504D-03
     24 -0.348740D-01 -0.296658D-03 -0.272455D-03 -0.186305D-03  0.000000D+00
     25  0.283829D-05  0.464559D-03  0.115107D-02  0.886687D-03  0.375936D-03
     26  0.000000D+00  0.101398D-03 -0.304419D-03 -0.162509D-03 -0.120790D-04
     27  0.187039D-02  0.852896D-04 -0.370384D-04 -0.165975D-03  0.000000D+00
     28 -0.157574D-01 -0.115904D-03  0.214030D-03  0.110111D-04 -0.872207D-05
     29  0.414272D-02 -0.222145D-03  0.455157D-04 -0.200919D-03 -0.819868D-04
     30 -0.216891D-02 -0.168648D-03 -0.393354D-04  0.506757D-04 -0.190306D-04
     31  0.113368D-04 -0.802547D-04  0.363580D-03  0.184857D-03 -0.979462D-04
     32  0.191003D-05 -0.644117D-04 -0.109394D-03 -0.421130D-04 -0.264662D-04
     33  0.107787D-02 -0.237185D-04 -0.240249D-04  0.470427D-04  0.000000D+00
     34  0.157607D-01 -0.544298D-03 -0.138311D-03 -0.111798D-04 -0.867940D-05
     35 -0.414528D-02 -0.528472D-03  0.769929D-04 -0.108955D-04 -0.820353D-04
     36 -0.217407D-02  0.886250D-04  0.148458D-03  0.391174D-03  0.190150D-04
               11            12            13            14            15 
     11  0.515858D-01
     12  0.381682D-05  0.351443D-01
     13  0.119934D-01 -0.194914D-01  0.538788D-01
     14  0.388696D-03  0.644309D-02 -0.222559D-01  0.113615D+00
     15  0.336776D-02 -0.604657D-03  0.451838D-01 -0.948000D-01  0.177007D+00
     16 -0.136314D-02  0.550514D-03 -0.124560D-02 -0.261258D-02 -0.823269D-03
     17 -0.275859D-03  0.588233D-03 -0.236109D-02 -0.376167D-02 -0.318484D-03
     18  0.673291D-03  0.385904D-03 -0.485379D-03 -0.302243D-03  0.168567D-03
     19 -0.136318D-02 -0.550888D-03  0.754221D-03  0.518404D-03 -0.979134D-04
     20 -0.275504D-03 -0.588283D-03 -0.210937D-03 -0.180324D-02 -0.437690D-03
     21 -0.673078D-03  0.385741D-03  0.454373D-05 -0.546141D-04  0.964146D-03
     22  0.233204D-02  0.000000D+00 -0.698695D-03 -0.492813D-02  0.274116D-02
     23 -0.206148D-02  0.000000D+00 -0.248409D-03  0.583678D-03 -0.377055D-03
     24  0.000000D+00  0.860821D-04  0.296313D-03  0.273341D-03 -0.186843D-03
     25 -0.532597D-03  0.000000D+00  0.464204D-03  0.115143D-02 -0.886591D-03
     26  0.177371D-03  0.000000D+00  0.101517D-03 -0.304515D-03  0.162506D-03
     27  0.000000D+00 -0.534036D-04 -0.852328D-04  0.372987D-04 -0.166114D-03
     28 -0.197009D-03 -0.359402D-05 -0.543640D-03 -0.137794D-03  0.108675D-04
     29 -0.110617D-03 -0.138490D-04 -0.528472D-03  0.767535D-04  0.107043D-04
     30  0.503977D-04  0.772336D-04 -0.884181D-04 -0.148528D-03  0.391108D-03
     31 -0.744865D-03  0.000000D+00 -0.803669D-04  0.363591D-03 -0.184747D-03
     32  0.253947D-03  0.000000D+00 -0.643578D-04 -0.109398D-03  0.421044D-04
     33  0.000000D+00  0.587564D-04  0.237151D-04  0.239540D-04  0.469760D-04
     34 -0.196583D-03  0.355454D-05 -0.116032D-03  0.213781D-03 -0.106522D-04
     35 -0.110686D-03  0.138105D-04 -0.222326D-03  0.455760D-04  0.201048D-03
     36 -0.503043D-04  0.771964D-04  0.168845D-03  0.392967D-04  0.506793D-04
               16            17            18            19            20 
     16  0.578370D-01
     17 -0.176551D-01  0.130136D+00
     18  0.404731D-01 -0.936462D-01  0.197244D+00
     19  0.570185D-02 -0.412116D-02 -0.763731D-02  0.578098D-01
     20 -0.411970D-02  0.128660D-01  0.131687D-01 -0.176117D-01  0.130070D+00
     21  0.762390D-02 -0.131514D-01 -0.302784D-01 -0.404351D-01  0.936298D-01
     22  0.879665D-03  0.609146D-02 -0.989400D-02  0.886535D-03  0.608805D-02
     23  0.707716D-02 -0.135250D-02  0.190704D-02  0.707211D-02 -0.135104D-02
     24 -0.124217D-01  0.266360D-02  0.220078D-03  0.124254D-01 -0.266548D-02
     25 -0.174795D-02 -0.696786D-03  0.147056D-02 -0.174761D-02 -0.696602D-03
     26  0.251616D-04 -0.304343D-04 -0.148866D-03  0.252973D-04 -0.304982D-04
     27  0.407532D-03 -0.442938D-04 -0.242358D-03 -0.408111D-03  0.441894D-04
     28 -0.354444D-02  0.413049D-03  0.432117D-03 -0.162042D-02  0.825506D-03
     29  0.432179D-03  0.112511D-03  0.587341D-04  0.100980D-02 -0.190951D-03
     30  0.229910D-03  0.110652D-03  0.403048D-04  0.478192D-03 -0.388693D-04
     31 -0.202783D-02  0.104810D-03 -0.501415D-03 -0.202679D-02  0.104678D-03
     32  0.314727D-03  0.427992D-03 -0.187718D-03  0.315261D-03  0.427454D-03
     33 -0.934666D-03 -0.778832D-05  0.242742D-03  0.935442D-03  0.783698D-05
     34 -0.161950D-02  0.824681D-03  0.137602D-03 -0.354443D-02  0.413169D-03
     35  0.100894D-02 -0.191170D-03 -0.383584D-04  0.431645D-03  0.112458D-03
     36 -0.477675D-03  0.386242D-04  0.589079D-03 -0.228706D-03 -0.110933D-03
               21            22            23            24            25 
     21  0.197340D+00
     22  0.989657D-02 -0.986360D-01
     23 -0.191007D-02  0.730273D-01  0.419556D+00
     24  0.212247D-03  0.517617D-04 -0.314311D-04  0.428516D+00
     25 -0.147038D-02  0.506030D-01 -0.765533D-02 -0.526400D-05  0.387804D-01
     26  0.148915D-03 -0.831196D-02 -0.332775D-02  0.000000D+00 -0.464661D-02
     27 -0.242629D-03  0.111457D-04 -0.207181D-05 -0.455340D-02 -0.465920D-05
     28 -0.136712D-03 -0.853185D-02 -0.258295D-02 -0.329421D-02 -0.203223D-01
     29  0.379036D-04 -0.176811D-02 -0.864466D-01  0.782276D-01  0.627653D-03
     30  0.589513D-03 -0.487996D-02  0.787823D-01 -0.174738D+00  0.417069D-02
     31  0.501739D-03 -0.187902D-01 -0.443666D-01  0.136133D-04 -0.174779D-01
     32  0.187640D-03 -0.455000D-01 -0.210163D+00  0.701036D-04  0.675487D-02
     33  0.241505D-03  0.118038D-04  0.687493D-04 -0.411151D-01 -0.190727D-05
     34 -0.431004D-03 -0.855752D-02 -0.260109D-02  0.324579D-02 -0.203031D-01
     35 -0.587462D-04 -0.178502D-02 -0.865172D-01 -0.782677D-01  0.626913D-03
     36  0.405249D-04  0.482727D-02 -0.788204D-01 -0.174667D+00 -0.416267D-02
               26            27            28            29            30 
     26  0.491129D-02
     27  0.000000D+00  0.438336D-02
     28 -0.198475D-03  0.570403D-02  0.529741D-01
     29  0.743726D-03  0.494282D-03 -0.685608D-02  0.938072D-01
     30  0.707438D-03 -0.111654D-02  0.850595D-02 -0.953203D-01  0.198715D+00
     31  0.858765D-02 -0.396687D-05  0.441093D-02 -0.703789D-03  0.789544D-03
     32 -0.374541D-02  0.210328D-05 -0.370451D-02 -0.141819D-01  0.519775D-02
     33  0.155635D-05  0.110429D-02  0.444548D-02  0.203519D-01  0.697874D-03
     34 -0.202737D-03 -0.570337D-02  0.444546D-02 -0.378006D-03 -0.630988D-03
     35  0.741891D-03 -0.494004D-03 -0.375536D-03  0.842140D-02  0.789443D-02
     36 -0.707952D-03 -0.111524D-02  0.622428D-03 -0.790939D-02 -0.220137D-01
               31            32            33            34            35 
     31  0.653654D-01
     32  0.510212D-01  0.241563D+00
     33 -0.209526D-04 -0.804824D-04  0.369075D-01
     34  0.441249D-02 -0.371014D-02 -0.444400D-02  0.529610D-01
     35 -0.712543D-03 -0.142013D-01 -0.203452D-01 -0.682879D-02  0.939018D-01
     36 -0.790706D-03 -0.519115D-02  0.712089D-03 -0.845750D-02  0.953711D-01
               36 
     36  0.198635D+00
 FormGI is forming the generalized inverse of G from B-inverse, IUseBI=4.
 Leave Link  716 at Sat Dec 13 12:25:15 2025, MaxMem=   536870912 cpu:               0.0 elap:               0.1
 (Enter D:\G16W\l103.exe)

 GradGradGradGradGradGradGradGradGradGradGradGradGradGradGradGradGradGrad
 Berny optimization.
 Red2BG is reusing G-inverse.
 Internal  Forces:  Max     0.007011691 RMS     0.000920707
 Search for a saddle point.
 Step number   1 out of a maximum of   68
 All quantities printed in internal units (Hartrees-Bohrs-Radians)
 Swapping is turned off.
 Second derivative matrix not updated -- analytic derivatives used.
 ITU=  0
     Eigenvalues ---   -0.04661   0.00055   0.00102   0.01587   0.01623
     Eigenvalues ---    0.01864   0.02897   0.03344   0.03423   0.03677
     Eigenvalues ---    0.03879   0.03988   0.06164   0.08247   0.08300
     Eigenvalues ---    0.10106   0.11440   0.12647   0.14948   0.15085
     Eigenvalues ---    0.16118   0.22539   0.22694   0.25339   0.25358
     Eigenvalues ---    0.25664   0.26320   0.26813   0.28326   0.46333
 Eigenvectors required to have negative eigenvalues:
                          R7        R8        A13       A15       A14
   1                   -0.70548   0.54321   0.23876   0.23873   0.23712
                          A17       A18       A16       R13       R14
   1                   -0.09435  -0.09424  -0.09419   0.04467   0.03643
 RFO step:  Lambda0=5.166977360D-04 Lambda=-3.09000311D-04.
 Linear search not attempted -- option 19 set.
 Iteration  1 RMS(Cart)=  0.01050637 RMS(Int)=  0.00027400
 Iteration  2 RMS(Cart)=  0.00015634 RMS(Int)=  0.00022599
 Iteration  3 RMS(Cart)=  0.00000011 RMS(Int)=  0.00022599
 ITry= 1 IFail=0 DXMaxC= 5.91D-02 DCOld= 1.00D+10 DXMaxT= 3.00D-01 DXLimC= 3.00D+00 Rises=F
 Variable       Old X    -DE/DX   Delta X   Delta X   Delta X     New X
                                 (Linear)    (Quad)   (Total)
    R1        2.81145   0.00001   0.00000   0.00002   0.00002   2.81146
    R2        2.09020   0.00000   0.00000  -0.00075  -0.00075   2.08945
    R3        2.08167   0.00000   0.00000  -0.00053  -0.00053   2.08114
    R4        2.09019   0.00000   0.00000  -0.00074  -0.00074   2.08945
    R5        1.92760   0.00000   0.00000  -0.00083  -0.00083   1.92677
    R6        1.92759   0.00000   0.00000  -0.00082  -0.00082   1.92677
    R7        3.47709  -0.00701   0.00000   0.02996   0.02996   3.50705
    R8        5.16507  -0.00001   0.00000  -0.10443  -0.10462   5.06046
    R9        2.05195   0.00000   0.00000  -0.00102  -0.00099   2.05096
   R10        2.05281  -0.00001   0.00000  -0.00109  -0.00107   2.05174
   R11        2.05197   0.00000   0.00000  -0.00103  -0.00100   2.05097
   R12        5.32621   0.00000   0.00000  -0.04559  -0.04554   5.28067
   R13        5.33974   0.00000   0.00000  -0.05057  -0.05052   5.28921
   R14        5.32692  -0.00001   0.00000  -0.04639  -0.04634   5.28058
    A1        1.92409   0.00000   0.00000  -0.00158  -0.00158   1.92251
    A2        1.96634   0.00000   0.00000   0.00201   0.00201   1.96835
    A3        1.92410   0.00000   0.00000  -0.00159  -0.00160   1.92251
    A4        1.88706   0.00000   0.00000   0.00037   0.00037   1.88743
    A5        1.87217   0.00000   0.00000   0.00046   0.00046   1.87262
    A6        1.88710   0.00000   0.00000   0.00033   0.00033   1.88743
    A7        1.94279   0.00001   0.00000  -0.00244  -0.00245   1.94034
    A8        1.94279   0.00001   0.00000  -0.00244  -0.00245   1.94034
    A9        1.91169  -0.00003   0.00000   0.00456   0.00456   1.91625
   A10        1.89558   0.00000   0.00000  -0.00325  -0.00326   1.89232
   A11        1.88458   0.00001   0.00000   0.00188   0.00188   1.88646
   A12        1.88456   0.00001   0.00000   0.00190   0.00190   1.88646
   A13        1.69040  -0.00001   0.00000  -0.02481  -0.02499   1.66541
   A14        1.68191   0.00001   0.00000  -0.02516  -0.02534   1.65657
   A15        1.69048  -0.00002   0.00000  -0.02488  -0.02506   1.66543
   A16        2.07150   0.00000   0.00000   0.00982   0.00887   2.08037
   A17        2.07036   0.00000   0.00000   0.00970   0.00873   2.07910
   A18        2.07122   0.00001   0.00000   0.01009   0.00913   2.08035
   A19        0.67486   0.00000   0.00000   0.00801   0.00788   0.68274
   A20        0.67532   0.00000   0.00000   0.00773   0.00760   0.68292
   A21        0.67475   0.00000   0.00000   0.00812   0.00799   0.68274
   A22        3.14203   0.00000   0.00000   0.00110   0.00110   3.14314
   A23        3.14287  -0.00002   0.00000   0.00136   0.00136   3.14423
    D1        1.05100   0.00000   0.00000   0.00443   0.00442   1.05542
    D2       -3.11464   0.00000   0.00000  -0.00311  -0.00311  -3.11775
    D3       -1.03183   0.00000   0.00000   0.00067   0.00067  -1.03117
    D4       -1.05871   0.00000   0.00000   0.00370   0.00370  -1.05501
    D5        1.05883   0.00000   0.00000  -0.00384  -0.00384   1.05500
    D6       -3.14154   0.00000   0.00000  -0.00006  -0.00006   3.14158
    D7        3.11470   0.00000   0.00000   0.00304   0.00303   3.11773
    D8       -1.05094   0.00000   0.00000  -0.00450  -0.00450  -1.05544
    D9        1.03187   0.00000   0.00000  -0.00072  -0.00072   1.03114
   D10       -1.04784   0.00000   0.00000   0.00043   0.00044  -1.04740
   D11        3.14106   0.00000   0.00000   0.00037   0.00037   3.14143
   D12        1.04704   0.00000   0.00000   0.00006   0.00005   1.04709
   D13        3.11702   0.00000   0.00000  -0.00047  -0.00047   3.11655
   D14        1.02273   0.00001   0.00000  -0.00053  -0.00054   1.02219
   D15       -1.07129   0.00000   0.00000  -0.00085  -0.00086  -1.07215
   D16        1.07047   0.00000   0.00000   0.00135   0.00136   1.07183
   D17       -1.02381   0.00000   0.00000   0.00129   0.00129  -1.02252
   D18       -3.11783  -0.00001   0.00000   0.00097   0.00097  -3.11686
   D19       -0.55800   0.00000   0.00000  -0.00093  -0.00095  -0.55895
   D20        0.55837   0.00000   0.00000   0.00124   0.00120   0.55957
   D21       -0.55899   0.00000   0.00000  -0.00050  -0.00050  -0.55950
         Item               Value     Threshold  Converged?
 Maximum Force            0.007012     0.000450     NO 
 RMS     Force            0.000921     0.000300     NO 
 Maximum Displacement     0.059147     0.001800     NO 
 RMS     Displacement     0.010526     0.001200     NO 
 Predicted change in Energy= 1.051111D-04
 Lowest energy point so far.  Saving SCF results.
 GradGradGradGradGradGradGradGradGradGradGradGradGradGradGradGradGradGrad

 Leave Link  103 at Sat Dec 13 12:25:15 2025, MaxMem=   536870912 cpu:               0.0 elap:               0.1
 (Enter D:\G16W\l202.exe)
                          Input orientation:                          
 ---------------------------------------------------------------------
 Center     Atomic      Atomic             Coordinates (Angstroms)
 Number     Number       Type             X           Y           Z
 ---------------------------------------------------------------------
      1          6           0       -3.810942   -0.700689    0.000005
      2          7           0       -3.110179    0.611702    0.000054
      3          1           0       -3.519943   -1.287855   -0.890561
      4          1           0       -4.907485   -0.598541    0.000098
      5          1           0       -3.519804   -1.287993    0.890435
      6          1           0       -3.350438    1.157506   -0.826969
      7          1           0       -3.350325    1.157384    0.827189
      8          6           0       -1.273800    0.343555   -0.000089
      9         53           0        1.377147   -0.035283   -0.000352
     10          1           0       -1.250306   -0.205704    0.935692
     11          1           0       -1.025461    1.400507   -0.000207
     12          1           0       -1.250460   -0.205862   -0.935788
 ---------------------------------------------------------------------
                    Distance matrix (angstroms):
                    1          2          3          4          5
     1  C    0.000000
     2  N    1.487763   0.000000
     3  H    1.105691   2.137619   0.000000
     4  H    1.101291   2.166794   1.787092   0.000000
     5  H    1.105691   2.137618   1.780996   1.787093   0.000000
     6  H    2.085387   1.019604   2.452053   2.488400   2.993096
     7  H    2.085386   1.019604   2.993097   2.488393   2.452058
     8  C    2.743635   1.855853   2.915407   3.753826   2.915393
     9  I    5.230586   4.533727   5.132534   6.309822   5.132534
    10  H    2.770808   2.236672   3.107653   3.795342   2.514760
    11  H    3.489115   2.228960   3.773918   4.366497   3.773992
    12  H    2.770674   2.236687   2.514619   3.795249   3.107414
                    6          7          8          9         10
     6  H    0.000000
     7  H    1.654158   0.000000
     8  C    2.378796   2.378794   0.000000
     9  I    4.945311   4.945328   2.677879   0.000000
    10  H    3.062005   2.505966   1.085322   2.794410   0.000000
    11  H    2.479536   2.479654   1.085735   2.798931   1.872532
    12  H    2.506097   3.062019   1.085327   2.794361   1.871480
                   11         12
    11  H    0.000000
    12  H    1.872527   0.000000
 Stoichiometry    C2H8IN
 Framework group  C1[X(C2H8IN)]
 Deg. of freedom    30
 Full point group                 C1      NOp   1
 RotChk:  IX=2 Diff= 3.63D-03
 Largest Abelian subgroup         C1      NOp   1
 Largest concise Abelian subgroup C1      NOp   1
                         Standard orientation:                         
 ---------------------------------------------------------------------
 Center     Atomic      Atomic             Coordinates (Angstroms)
 Number     Number       Type             X           Y           Z
 ---------------------------------------------------------------------
      1          6           0        3.794428   -0.695924   -0.000241
      2          7           0        3.090296    0.614662   -0.000289
      3          1           0        3.504939   -1.283835    0.890325
      4          1           0        4.890705   -0.590958   -0.000334
      5          1           0        3.504800   -1.283974   -0.890671
      6          1           0        3.329151    1.161082    0.826733
      7          1           0        3.329039    1.160959   -0.827425
      8          6           0        1.254612    0.341798   -0.000147
      9         53           0       -1.395353   -0.043850    0.000116
     10          1           0        1.232528   -0.207520   -0.935928
     11          1           0        1.003558    1.398108   -0.000029
     12          1           0        1.232683   -0.207677    0.935552
 ---------------------------------------------------------------------
 Rotational constants (GHZ):          19.5102926           0.7927799           0.7728737
 Leave Link  202 at Sat Dec 13 12:25:16 2025, MaxMem=   536870912 cpu:               1.0 elap:               0.1
 (Enter D:\G16W\l301.exe)
 Standard basis: VSTO-6G (5D, 7F)
 Ernie: Thresh=  0.10000D-02 Tol=  0.10000D-05 Strict=F.
 EHB=         0.000000000 Number of Hydrogen Bonds=     0
  NNHCO=     0 NNPyr=     0 NCTC=     0               EPep=         0.000000000
    EC=        62.651111295  ECS=         1.705700401   EG=         0.306481397
   EHC=         0.000431358  EAt=       -26.623642591  AtH=         1.429640566
 EPDDG=         0.000000000  ECC=        64.663724451 EAtT=        28.053283157
  EHyb=         0.000000000
 There are    30 symmetry adapted cartesian basis functions of A   symmetry.
 There are    29 symmetry adapted basis functions of A   symmetry.
    29 basis functions,   180 primitive gaussians,    30 cartesian basis functions
    14 alpha electrons       14 beta electrons
       nuclear repulsion energy        92.7170076082 Hartrees.
 IExCor=    0 DFT=F Ex=HF Corr=None ExCW=0 ScaHFX=  1.000000
 ScaDFX=  1.000000  1.000000  1.000000  1.000000 ScalE2=  1.000000  1.000000
 IRadAn=      5 IRanWt=     -1 IRanGd=            0 ICorTp=0 IEmpDi=251
 Integral buffers will be    131072 words long.
 Regular integral format.
 Two-electron integral symmetry is turned off.
 R6Disp:  PM7 Dispersion energy=       -0.0013214727 Hartrees.
 Nuclear repulsion after empirical dispersion term =       92.7156861354 Hartrees.
 Leave Link  301 at Sat Dec 13 12:25:16 2025, MaxMem=   536870912 cpu:               0.0 elap:               0.1
 (Enter D:\G16W\l302.exe)
 Do NDO integrals.
 NPDir=0 NMtPBC=     1 NCelOv=     1 NCel=       1 NClECP=     1 NCelD=      1
         NCelK=      1 NCelE2=     1 NClLst=     1 CellRange=     0.0.
 One-electron integrals computed using PRISM.
 NBasis=    29 RedAO= F EigKep=  0.00D+00  NBF=    29
 NBsUse=    29 1.00D-04 EigRej=  0.00D+00 NBFU=    29
 Leave Link  302 at Sat Dec 13 12:25:16 2025, MaxMem=   536870912 cpu:               0.0 elap:               0.2
 (Enter D:\G16W\l303.exe)
 DipDrv:  MaxL=1.
 Leave Link  303 at Sat Dec 13 12:25:16 2025, MaxMem=   536870912 cpu:               0.0 elap:               0.1
 (Enter D:\G16W\l401.exe)
 Initial guess from the checkpoint file:  ".\Gau-22172.chk"
 B after Tr=     0.000000    0.000000    0.000000
         Rot=    1.000000    0.000019   -0.000038   -0.000530 Ang=   0.06 deg.
 Guess basis will be translated and rotated to current coordinates.
 JPrj=0 DoOrth=T DoCkMO=T.
 Leave Link  401 at Sat Dec 13 12:25:16 2025, MaxMem=   536870912 cpu:               0.0 elap:               0.1
 (Enter D:\G16W\l502.exe)
 Keep J ints in memory in canonical form, NReq=1850463.
 FoFCou: FMM=F IPFlag=           0 FMFlag=           0 FMFlg1=           0
         NFxFlg=           0 DoJE=F BraDBF=F KetDBF=F FulRan=T
         wScrn=  0.000000 ICntrl=       600 IOpCl=  2 I1Cent=           0 NGrid=           0
         NMat0=    1 NMatS0=     83 NMatT0=    0 NMatD0=    1 NMtDS0=    0 NMtDT0=    0
 Symmetry not used in FoFCou.
 Two-electron integral symmetry not used.
 Closed shell SCF:
 Using DIIS extrapolation, IDIIS=  1040.
 Overlap will be assumed to be unity.
 NGot=   536870912 LenX=   536805852 LenY=   536804511
 Requested convergence on RMS density matrix=1.00D-08 within 128 cycles.
 Requested convergence on MAX density matrix=1.00D-06.
 Requested convergence on             energy=1.00D-06.
 No special actions if energy rises.

 Cycle   1  Pass 1  IDiag  1:
 E= 0.426889573531213E-01
 DIIS: error= 3.05D-03 at cycle   1 NSaved=   1.
 NSaved= 1 IEnMin= 1 EnMin= 0.426889573531213E-01 IErMin= 1 ErrMin= 3.05D-03
 ErrMax= 3.05D-03  0.00D+00 EMaxC= 1.00D-01 BMatC= 2.19D-04 BMatP= 2.19D-04
 IDIUse=3 WtCom= 9.70D-01 WtEn= 3.05D-02
 Coeff-Com:  0.100D+01
 Coeff-En:   0.100D+01
 Coeff:      0.100D+01
 GapD=    2.000 DampG=2.000 DampE=1.000 DampFc=2.0000 IDamp=-1.
 RMSDP=1.05D-03 MaxDP=1.05D-02              OVMax= 0.00D+00

 Cycle   2  Pass 1  IDiag  3:
 E= 0.420547728150211E-01 Delta-E=       -0.000634184538 Rises=F Damp=F
 DIIS: error= 1.17D-03 at cycle   2 NSaved=   2.
 NSaved= 2 IEnMin= 2 EnMin= 0.420547728150211E-01 IErMin= 2 ErrMin= 1.17D-03
 ErrMax= 1.17D-03  0.00D+00 EMaxC= 1.00D-01 BMatC= 2.31D-05 BMatP= 2.19D-04
 IDIUse=3 WtCom= 9.88D-01 WtEn= 1.17D-02
 Coeff-Com: -0.267D+00 0.127D+01
 Coeff-En:   0.000D+00 0.100D+01
 Coeff:     -0.264D+00 0.126D+01
 Gap=     0.264 Goal=   None    Shift=    0.000
 RMSDP=5.91D-04 MaxDP=6.34D-03 DE=-6.34D-04 OVMax= 8.73D-03

 Cycle   3  Pass 1  IDiag  3:
 E= 0.419243454558398E-01 Delta-E=       -0.000130427359 Rises=F Damp=F
 DIIS: error= 2.87D-04 at cycle   3 NSaved=   3.
 NSaved= 3 IEnMin= 3 EnMin= 0.419243454558398E-01 IErMin= 3 ErrMin= 2.87D-04
 ErrMax= 2.87D-04  0.00D+00 EMaxC= 1.00D-01 BMatC= 2.20D-06 BMatP= 2.31D-05
 IDIUse=3 WtCom= 9.97D-01 WtEn= 2.87D-03
 Coeff-Com:  0.117D-01-0.354D+00 0.134D+01
 Coeff-En:   0.000D+00 0.000D+00 0.100D+01
 Coeff:      0.117D-01-0.353D+00 0.134D+01
 Gap=     0.266 Goal=   None    Shift=    0.000
 RMSDP=2.56D-04 MaxDP=2.84D-03 DE=-1.30D-04 OVMax= 3.92D-03

 Cycle   4  Pass 1  IDiag  3:
 E= 0.419071556469106E-01 Delta-E=       -0.000017189809 Rises=F Damp=F
 DIIS: error= 8.00D-05 at cycle   4 NSaved=   4.
 NSaved= 4 IEnMin= 4 EnMin= 0.419071556469106E-01 IErMin= 4 ErrMin= 8.00D-05
 ErrMax= 8.00D-05  0.00D+00 EMaxC= 1.00D-01 BMatC= 1.49D-07 BMatP= 2.20D-06
 IDIUse=1 WtCom= 1.00D+00 WtEn= 0.00D+00
 Coeff-Com:  0.467D-02 0.493D-01-0.444D+00 0.139D+01
 Coeff:      0.467D-02 0.493D-01-0.444D+00 0.139D+01
 Gap=     0.266 Goal=   None    Shift=    0.000
 RMSDP=7.48D-05 MaxDP=8.55D-04 DE=-1.72D-05 OVMax= 1.19D-03

 Cycle   5  Pass 1  IDiag  3:
 E= 0.419059609351393E-01 Delta-E=       -0.000001194712 Rises=F Damp=F
 DIIS: error= 1.59D-05 at cycle   5 NSaved=   5.
 NSaved= 5 IEnMin= 5 EnMin= 0.419059609351393E-01 IErMin= 5 ErrMin= 1.59D-05
 ErrMax= 1.59D-05  0.00D+00 EMaxC= 1.00D-01 BMatC= 8.60D-09 BMatP= 1.49D-07
 IDIUse=1 WtCom= 1.00D+00 WtEn= 0.00D+00
 Coeff-Com: -0.339D-02 0.293D-01-0.248D-01-0.288D+00 0.129D+01
 Coeff:     -0.339D-02 0.293D-01-0.248D-01-0.288D+00 0.129D+01
 Gap=     0.266 Goal=   None    Shift=    0.000
 RMSDP=1.35D-05 MaxDP=1.44D-04 DE=-1.19D-06 OVMax= 2.01D-04

 Cycle   6  Pass 1  IDiag  3:
 E= 0.419059134750199E-01 Delta-E=       -0.000000047460 Rises=F Damp=F
 DIIS: error= 3.33D-06 at cycle   6 NSaved=   6.
 NSaved= 6 IEnMin= 6 EnMin= 0.419059134750199E-01 IErMin= 6 ErrMin= 3.33D-06
 ErrMax= 3.33D-06  0.00D+00 EMaxC= 1.00D-01 BMatC= 3.95D-10 BMatP= 8.60D-09
 IDIUse=1 WtCom= 1.00D+00 WtEn= 0.00D+00
 Coeff-Com:  0.118D-02-0.157D-01 0.344D-01 0.462D-01-0.505D+00 0.144D+01
 Coeff:      0.118D-02-0.157D-01 0.344D-01 0.462D-01-0.505D+00 0.144D+01
 Gap=     0.266 Goal=   None    Shift=    0.000
 RMSDP=2.80D-06 MaxDP=2.53D-05 DE=-4.75D-08 OVMax= 3.53D-05

 Cycle   7  Pass 1  IDiag  3:
 E= 0.419059112616935E-01 Delta-E=       -0.000000002213 Rises=F Damp=F
 DIIS: error= 9.53D-07 at cycle   7 NSaved=   7.
 NSaved= 7 IEnMin= 7 EnMin= 0.419059112616935E-01 IErMin= 7 ErrMin= 9.53D-07
 ErrMax= 9.53D-07  0.00D+00 EMaxC= 1.00D-01 BMatC= 2.40D-11 BMatP= 3.95D-10
 IDIUse=1 WtCom= 1.00D+00 WtEn= 0.00D+00
 Coeff-Com: -0.334D-03 0.547D-02-0.138D-01-0.512D-02 0.157D+00-0.640D+00
 Coeff-Com:  0.150D+01
 Coeff:     -0.334D-03 0.547D-02-0.138D-01-0.512D-02 0.157D+00-0.640D+00
 Coeff:      0.150D+01
 Gap=     0.266 Goal=   None    Shift=    0.000
 RMSDP=6.69D-07 MaxDP=6.39D-06 DE=-2.21D-09 OVMax= 5.17D-06

 Cycle   8  Pass 1  IDiag  3:
 E= 0.419059111134317E-01 Delta-E=       -0.000000000148 Rises=F Damp=F
 DIIS: error= 2.16D-07 at cycle   8 NSaved=   8.
 NSaved= 8 IEnMin= 8 EnMin= 0.419059111134317E-01 IErMin= 8 ErrMin= 2.16D-07
 ErrMax= 2.16D-07  0.00D+00 EMaxC= 1.00D-01 BMatC= 1.45D-12 BMatP= 2.40D-11
 IDIUse=1 WtCom= 1.00D+00 WtEn= 0.00D+00
 Coeff-Com:  0.887D-04-0.139D-02 0.333D-02 0.187D-02-0.414D-01 0.177D+00
 Coeff-Com: -0.581D+00 0.144D+01
 Coeff:      0.887D-04-0.139D-02 0.333D-02 0.187D-02-0.414D-01 0.177D+00
 Coeff:     -0.581D+00 0.144D+01
 Gap=     0.266 Goal=   None    Shift=    0.000
 RMSDP=1.92D-07 MaxDP=1.64D-06 DE=-1.48D-10 OVMax= 1.97D-06

 Cycle   9  Pass 1  IDiag  3:
 E= 0.419059111032709E-01 Delta-E=       -0.000000000010 Rises=F Damp=F
 DIIS: error= 4.74D-08 at cycle   9 NSaved=   9.
 NSaved= 9 IEnMin= 9 EnMin= 0.419059111032709E-01 IErMin= 9 ErrMin= 4.74D-08
 ErrMax= 4.74D-08  0.00D+00 EMaxC= 1.00D-01 BMatC= 9.08D-14 BMatP= 1.45D-12
 IDIUse=1 WtCom= 1.00D+00 WtEn= 0.00D+00
 Coeff-Com: -0.322D-05 0.286D-04-0.610D-05-0.320D-03 0.173D-02-0.105D-01
 Coeff-Com:  0.763D-01-0.447D+00 0.138D+01
 Coeff:     -0.322D-05 0.286D-04-0.610D-05-0.320D-03 0.173D-02-0.105D-01
 Coeff:      0.763D-01-0.447D+00 0.138D+01
 Gap=     0.266 Goal=   None    Shift=    0.000
 RMSDP=5.54D-08 MaxDP=5.76D-07 DE=-1.02D-11 OVMax= 6.88D-07

 Cycle  10  Pass 1  IDiag  3:
 E= 0.419059111032993E-01 Delta-E=        0.000000000000 Rises=F Damp=F
 DIIS: error= 1.56D-08 at cycle  10 NSaved=  10.
 NSaved=10 IEnMin= 9 EnMin= 0.419059111032709E-01 IErMin=10 ErrMin= 1.56D-08
 ErrMax= 1.56D-08  0.00D+00 EMaxC= 1.00D-01 BMatC= 4.60D-15 BMatP= 9.08D-14
 IDIUse=1 WtCom= 1.00D+00 WtEn= 0.00D+00
 Coeff-Com: -0.313D-05 0.610D-04-0.148D-03-0.954D-04 0.195D-02-0.699D-02
 Coeff-Com:  0.113D-01 0.406D-01-0.363D+00 0.132D+01
 Coeff:     -0.313D-05 0.610D-04-0.148D-03-0.954D-04 0.195D-02-0.699D-02
 Coeff:      0.113D-01 0.406D-01-0.363D+00 0.132D+01
 Gap=     0.266 Goal=   None    Shift=    0.000
 RMSDP=1.42D-08 MaxDP=1.77D-07 DE= 2.84D-14 OVMax= 2.09D-07

 Cycle  11  Pass 1  IDiag  3:
 E= 0.419059111032851E-01 Delta-E=        0.000000000000 Rises=F Damp=F
 DIIS: error= 6.06D-09 at cycle  11 NSaved=  11.
 NSaved=11 IEnMin= 9 EnMin= 0.419059111032709E-01 IErMin=11 ErrMin= 6.06D-09
 ErrMax= 6.06D-09  0.00D+00 EMaxC= 1.00D-01 BMatC= 4.54D-16 BMatP= 4.60D-15
 IDIUse=1 WtCom= 1.00D+00 WtEn= 0.00D+00
 Coeff-Com:  0.133D-05-0.237D-04 0.535D-04 0.552D-04-0.800D-03 0.291D-02
 Coeff-Com: -0.625D-02-0.275D-02 0.106D+00-0.611D+00 0.151D+01
 Coeff:      0.133D-05-0.237D-04 0.535D-04 0.552D-04-0.800D-03 0.291D-02
 Coeff:     -0.625D-02-0.275D-02 0.106D+00-0.611D+00 0.151D+01
 Gap=     0.266 Goal=   None    Shift=    0.000
 RMSDP=5.67D-09 MaxDP=7.47D-08 DE=-1.42D-14 OVMax= 8.78D-08

 Cycle  12  Pass 2  IDiag  1:
 SCF Done:  E(RPM7) =  0.419059111033E-01 A.U. after   12 cycles
            NFock= 11  Conv=0.57D-08     -V/T= 1.0009
 KE=-4.502147690107D+01 PE=-1.222861569763D+02 EE= 7.463385365300D+01
 Leave Link  502 at Sat Dec 13 12:25:17 2025, MaxMem=   536870912 cpu:               1.0 elap:               0.7
 (Enter D:\G16W\l801.exe)
 Range of M.O.s used for correlation:     1    29
 NBasis=    29 NAE=    14 NBE=    14 NFC=     0 NFV=     0
 NROrb=     29 NOA=    14 NOB=    14 NVA=    15 NVB=    15
 Leave Link  801 at Sat Dec 13 12:25:17 2025, MaxMem=   536870912 cpu:               0.0 elap:               0.1
 (Enter D:\G16W\l1101.exe)
 Using compressed storage, NAtomX=    12.
 Will process     13 centers per pass.
 R6Disp: Adding PM7 dispersion energy 1st derivatives to the gradient.
 Leave Link 1101 at Sat Dec 13 12:25:17 2025, MaxMem=   536870912 cpu:               0.0 elap:               0.1
 (Enter D:\G16W\l1102.exe)
 Symmetrizing basis deriv contribution to polar:
 IMax=3 JMax=2 DiffMx= 0.00D+00
 Leave Link 1102 at Sat Dec 13 12:25:18 2025, MaxMem=   536870912 cpu:               1.0 elap:               0.1
 (Enter D:\G16W\l1110.exe)
 Forming Gx(P) for the SCF density, NAtomX=    12.
 Integral derivatives from FoFJK, PRISM(SPDF).
 Do as many integral derivatives as possible in FoFJK.
 G2DrvN: MDV=     536811012.
 G2DrvN: will do    13 centers at a time, making    1 passes.
 Calling FoFCou, ICntrl=  3107 FMM=F I1Cent=   0 AccDes= 0.00D+00.
 FoFJK:  IHMeth=43 ICntrl=    3107 DoSepK=F KAlg= 0 I1Cent=           0 FoldK=F
 IRaf=         0 NMat=       1 IRICut=       1 DoRegI=T DoRafI=F ISym2E= 0 IDoP0=3 IntGTp=3.
 FoFCou: FMM=F IPFlag=           0 FMFlag=      100000 FMFlg1=           0
         NFxFlg=           0 DoJE=F BraDBF=F KetDBF=F FulRan=T
         wScrn=  0.000000 ICntrl=      3107 IOpCl=  0 I1Cent=           0 NGrid=           0
         NMat0=    1 NMatS0=      1 NMatT0=    0 NMatD0=    1 NMtDS0=    0 NMtDT0=    0
 Symmetry not used in FoFCou.
 End of G2Drv F.D. properties file   721 does not exist.
 End of G2Drv F.D. properties file   722 does not exist.
 End of G2Drv F.D. properties file   788 does not exist.
 Leave Link 1110 at Sat Dec 13 12:25:18 2025, MaxMem=   536870912 cpu:               0.0 elap:               0.1
 (Enter D:\G16W\l1002.exe)
 Minotr:  Closed shell wavefunction.
          IDoAtm=111111111111
          Direct CPHF calculation.
          Differentiating once with respect to electric field.
                with respect to dipole field.
          Differentiating once with respect to nuclear coordinates.
          Electric field/nuclear overlap derivatives assumed to be zero.
          Requested convergence is 1.0D-08 RMS, and 1.0D-07 maximum.
          NewPWx=T KeepS1=F KeepF1=F KeepIn=T MapXYZ=F SortEE=F KeepMc=T.
 Keep J ints in memory in canonical form, NReq=1851676.
 FoFCou: FMM=F IPFlag=           0 FMFlag=           0 FMFlg1=           0
         NFxFlg=           0 DoJE=F BraDBF=F KetDBF=F FulRan=T
         wScrn=  0.000000 ICntrl=       600 IOpCl=  2 I1Cent=           0 NGrid=           0
         NMat0=    1 NMatS0=     83 NMatT0=    0 NMatD0=    1 NMtDS0=    0 NMtDT0=    0
 Symmetry not used in FoFCou.
 Two-electron integral symmetry not used.
          MDV=     536870912 using IRadAn=       1.
          Solving linear equations separately, MaxMat=       0.
          There are    39 degrees of freedom in the 1st order CPHF.  IDoFFX=5 NUNeed=    39.
 LinEq1:  Iter=  0 NonCon=    39 RMS=5.68D-01 Max=7.88D+00 NDo=    39
 AX will form    39 AO Fock derivatives at one time.
 LinEq1:  Iter=  1 NonCon=    39 RMS=4.85D-02 Max=2.34D-01 NDo=    39
 LinEq1:  Iter=  2 NonCon=    39 RMS=7.98D-03 Max=4.22D-02 NDo=    39
 LinEq1:  Iter=  3 NonCon=    39 RMS=1.48D-03 Max=8.60D-03 NDo=    39
 LinEq1:  Iter=  4 NonCon=    39 RMS=2.20D-04 Max=1.09D-03 NDo=    39
 LinEq1:  Iter=  5 NonCon=    39 RMS=3.68D-05 Max=1.94D-04 NDo=    39
 LinEq1:  Iter=  6 NonCon=    38 RMS=5.02D-06 Max=2.20D-05 NDo=    39
 LinEq1:  Iter=  7 NonCon=    18 RMS=7.52D-07 Max=3.05D-06 NDo=    39
 LinEq1:  Iter=  8 NonCon=     3 RMS=1.16D-07 Max=6.08D-07 NDo=    39
 LinEq1:  Iter=  9 NonCon=     2 RMS=2.43D-08 Max=1.89D-07 NDo=    39
 LinEq1:  Iter= 10 NonCon=     0 RMS=4.11D-09 Max=3.36D-08 NDo=    39
 Linear equations converged to 1.000D-08 1.000D-07 after    10 iterations.
 FullF1:  Do perturbations      1 to       3.
 Isotropic polarizability for W=    0.000000       62.54 Bohr**3.
 End of Minotr F.D. properties file   721 does not exist.
 End of Minotr F.D. properties file   722 does not exist.
 End of Minotr F.D. properties file   788 does not exist.
 Leave Link 1002 at Sat Dec 13 12:25:18 2025, MaxMem=   536870912 cpu:               0.0 elap:               0.4
 (Enter D:\G16W\l701.exe)
 ... and contract with generalized density number  0.
 Compute integral second derivatives.
 R6Disp: Adding PM7 dispersion energy 2nd derivatives to the Hessian.
 Leave Link  701 at Sat Dec 13 12:25:18 2025, MaxMem=   536870912 cpu:               0.0 elap:               0.2
 (Enter D:\G16W\l702.exe)
 L702 exits ... SP integral derivatives will be done elsewhere.
 Leave Link  702 at Sat Dec 13 12:25:19 2025, MaxMem=   536870912 cpu:               1.0 elap:               0.1
 (Enter D:\G16W\l703.exe)
 Integral derivatives from FoFJK, PRISM(SPDF).
 Compute integral second derivatives, UseDBF=F ICtDFT=           0.
 Calling FoFJK, ICntrl=    100127 FMM=F ISym2X=0 I1Cent= 0 IOpClX= 0 NMat=1 NMatS=1 NMatT=0.
 FoFJK:  IHMeth=43 ICntrl=  100127 DoSepK=F KAlg= 0 I1Cent=           0 FoldK=F
 IRaf=         0 NMat=       1 IRICut=       1 DoRegI=T DoRafI=F ISym2E= 0 IDoP0=3 IntGTp=3.
 FoFCou: FMM=F IPFlag=           0 FMFlag=      100000 FMFlg1=         800
         NFxFlg=           0 DoJE=F BraDBF=F KetDBF=F FulRan=T
         wScrn=  0.000000 ICntrl=    100127 IOpCl=  0 I1Cent=           0 NGrid=           0
         NMat0=    1 NMatS0=      1 NMatT0=    0 NMatD0=    1 NMtDS0=    0 NMtDT0=    0
 Symmetry not used in FoFCou.
 Leave Link  703 at Sat Dec 13 12:25:19 2025, MaxMem=   536870912 cpu:               0.0 elap:               0.1
 (Enter D:\G16W\l716.exe)
 Dipole        = 5.35478058D+00 5.66496465D-01-4.68074744D-04
 Polarizability= 1.42316223D+02 1.14991021D+01 2.50625152D+01
                -1.07948350D-02-1.15165422D-03 2.02403567D+01
 HyperPolar    = 5.35695524D+03 5.47769001D+02 1.16305662D+02
                 1.89519019D+01-4.90406624D-01-5.36384637D-02
                -6.88588968D-03 3.01117345D+01 3.43548134D+00
                -1.08873810D-02
 ***** Axes restored to original set *****
 -------------------------------------------------------------------
[...]
 ! A11   A(6,2,8)              108.0863         -DE/DX =    0.0                 !
 ! A12   A(7,2,8)              108.0862         -DE/DX =    0.0                 !
 ! A13   A(2,8,10)              95.4211         -DE/DX =   -0.0001              !
 ! A14   A(2,8,11)              94.9147         -DE/DX =   -0.0001              !
 ! A15   A(2,8,12)              95.4219         -DE/DX =   -0.0001              !
 ! A16   A(10,8,11)            119.1964         -DE/DX =    0.0                 !
 ! A17   A(10,8,12)            119.1234         -DE/DX =    0.0                 !
 ! A18   A(11,8,12)            119.1954         -DE/DX =    0.0                 !
 ! A19   A(10,9,11)             39.1181         -DE/DX =    0.0                 !
 ! A20   A(10,9,12)             39.1286         -DE/DX =    0.0                 !
 ! A21   A(11,9,12)             39.1183         -DE/DX =    0.0                 !
 ! A22   L(2,8,9,10,-1)        180.0884         -DE/DX =    0.0                 !
 ! A23   L(2,8,9,10,-2)        180.1514         -DE/DX =    0.0                 !
 ! D1    D(3,1,2,6)             60.4712         -DE/DX =    0.0                 !
 ! D2    D(3,1,2,7)           -178.6341         -DE/DX =    0.0                 !
 ! D3    D(3,1,2,8)            -59.0815         -DE/DX =    0.0                 !
 ! D4    D(4,1,2,6)            -60.4479         -DE/DX =    0.0                 !
 ! D5    D(4,1,2,7)             60.4468         -DE/DX =    0.0                 !
 ! D6    D(4,1,2,8)            179.9993         -DE/DX =    0.0                 !
 ! D7    D(5,1,2,6)            178.6329         -DE/DX =    0.0                 !
 ! D8    D(5,1,2,7)            -60.4724         -DE/DX =    0.0                 !
 ! D9    D(5,1,2,8)             59.0801         -DE/DX =    0.0                 !
 ! D10   D(1,2,8,10)           -60.0117         -DE/DX =    0.0                 !
 ! D11   D(1,2,8,11)          -180.0094         -DE/DX =    0.0                 !
 ! D12   D(1,2,8,12)            59.9938         -DE/DX =    0.0                 !
 ! D13   D(6,2,8,10)           178.565          -DE/DX =    0.0                 !
 ! D14   D(6,2,8,11)            58.5673         -DE/DX =    0.0                 !
 ! D15   D(6,2,8,12)           -61.4295         -DE/DX =    0.0                 !
 ! D16   D(7,2,8,10)            61.4114         -DE/DX =    0.0                 !
 ! D17   D(7,2,8,11)           -58.5863         -DE/DX =    0.0                 !
 ! D18   D(7,2,8,12)          -178.5831         -DE/DX =    0.0                 !
 ! D19   D(8,9,10,11)          -32.0256         -DE/DX =    0.0                 !
 ! D20   D(8,9,10,12)           32.0612         -DE/DX =    0.0                 !
 ! D21   D(8,9,11,12)          -32.0567         -DE/DX =    0.0                 !
 --------------------------------------------------------------------------------
 GradGradGradGradGradGradGradGradGradGradGradGradGradGradGradGradGradGrad

 Leave Link  103 at Sat Dec 13 12:25:24 2025, MaxMem=   536870912 cpu:               0.0 elap:               0.1
 (Enter D:\G16W\l9999.exe)

 ----------------------------------------------------------------------

 Electric dipole moment (input orientation):
 (Debye = 10**-18 statcoulomb cm , SI units = C m)
                  (au)            (Debye)         (10**-30 SI)
   Tot        0.538466D+01      0.136864D+02      0.456531D+02
   x         -0.535622D+01     -0.136141D+02     -0.454119D+02
   y          0.552736D+00      0.140491D+01      0.468629D+01
   z          0.468077D-03      0.118973D-02      0.396853D-02

 Dipole polarizability, Alpha (input orientation).
 (esu units = cm**3 , SI units = C**2 m**2 J**-1)
 Alpha(0;0):
               (au)            (10**-24 esu)      (10**-40 SI)
   iso        0.625397D+02      0.926743D+01      0.103114D+02
   aniso      0.121383D+03      0.179871D+02      0.200133D+02
   xx         0.142375D+03      0.210977D+02      0.234744D+02
   yx        -0.111977D+02     -0.165932D+01     -0.184625D+01
   yy         0.250042D+02      0.370524D+01      0.412263D+01
   zx        -0.107976D-01     -0.160004D-02     -0.178029D-02
   zy         0.112390D-02      0.166544D-03      0.185305D-03
   zz         0.202404D+02      0.299931D+01      0.333718D+01

 First dipole hyperpolarizability, Beta (input orientation).
 ||, _|_  parallel and perpendicular components, (z) with respect to z axis,
 vector components x,y,z.  Values do not include the 1/n! factor of 1/2.
 (esu units = statvolt**-1 cm**4 , SI units = C**3 m**3 J**-2)
 Beta(0;0,0):
               (au)            (10**-30 esu)      (10**-50 SI)
   || (z)     0.304907D+00      0.263416D-02      0.977643D-03
   _|_(z)     0.101636D+00      0.878054D-03      0.325881D-03
   x         -0.165145D+05     -0.142672D+03     -0.529513D+02
   y          0.166804D+04      0.144106D+02      0.534834D+01
   z          0.152454D+01      0.131708D-01      0.488821D-02
   ||         0.331970D+04      0.286796D+02      0.106441D+02
   xxx       -0.536113D+04     -0.463160D+02     -0.171897D+02
   xxy        0.534590D+03      0.461844D+01      0.171409D+01
   yxy       -0.113572D+03     -0.981174D+00     -0.364153D+00
   yyy        0.180659D+02      0.156076D+00      0.579259D-01
   xxz        0.490678D+00      0.423908D-02      0.157329D-02
   yxz       -0.523953D-01     -0.452655D-03     -0.167998D-03
   yyz        0.661335D-02      0.571342D-04      0.212048D-04
   zxz       -0.301205D+02     -0.260217D+00     -0.965771D-01
   zyz        0.335810D+01      0.290114D-01      0.107673D-01
   zzz        0.108871D-01      0.940559D-04      0.349079D-04

 ----------------------------------------------------------------------

 Dipole orientation:
     6         -0.21168334         -2.04543936          7.02767432
     7          0.05568602          0.54368425          5.96499808
     1         -1.99316519         -2.91443343          6.36662645
     1         -0.21381322         -2.06602508          9.10870894
     1          1.35462640         -3.26014345          6.36662987
     1         -1.39842011          1.67830874          6.52236235
     1          1.71095145          1.35722807          6.52239790
     6          0.04054620          0.39663607          2.46106044
    53          0.02017755          0.19980155         -2.59552715
     1          1.69407423         -0.80736733          2.31050508
     1          0.24923777          2.42087867          2.19927536
     1         -1.82386282         -0.44466132          2.31045664

 Electric dipole moment (dipole orientation):
 (Debye = 10**-18 statcoulomb cm , SI units = C m)
                  (au)            (Debye)         (10**-30 SI)
   Tot        0.538466D+01      0.136864D+02      0.456531D+02
   x          0.000000D+00      0.000000D+00      0.000000D+00
   y          0.000000D+00      0.000000D+00      0.000000D+00
   z          0.538466D+01      0.136864D+02      0.456531D+02

 Dipole polarizability, Alpha (dipole orientation).
 (esu units = cm**3 , SI units = C**2 m**2 J**-1)
 Alpha(0;0):
               (au)            (10**-24 esu)      (10**-40 SI)
   iso        0.625397D+02      0.926743D+01      0.103114D+02
   aniso      0.121383D+03      0.179871D+02      0.200133D+02
   xx         0.202795D+02      0.300511D+01      0.334364D+01
   yx         0.379308D+00      0.562076D-01      0.625394D-01
   yy         0.239150D+02      0.354384D+01      0.394306D+01
   zx        -0.104836D+00     -0.155351D-01     -0.172852D-01
   zy        -0.101734D+01     -0.150755D+00     -0.167737D+00
   zz         0.143425D+03      0.212533D+02      0.236475D+02

 First dipole hyperpolarizability, Beta (dipole orientation).
 ||, _|_  parallel and perpendicular components, (z) with respect to z axis,
 vector components x,y,z.  Values do not include the 1/n! factor of 1/2.
 (esu units = statvolt**-1 cm**4 , SI units = C**3 m**3 J**-2)
 Beta(0;0,0):
               (au)            (10**-30 esu)      (10**-50 SI)
   || (z)     0.331969D+04      0.286795D+02      0.106441D+02
   _|_(z)     0.110656D+04      0.955984D+01      0.354804D+01
   x         -0.361204D+01     -0.312052D-01     -0.115815D-01
   y         -0.357976D+02     -0.309263D+00     -0.114780D+00
   z          0.165984D+05      0.143398D+03      0.532206D+02
   ||         0.331970D+04      0.286796D+02      0.106441D+02
   xxx        0.722351D-01      0.624055D-03      0.231612D-03
   xxy        0.177288D+00      0.153163D-02      0.568451D-03
   yxy       -0.644684D+00     -0.556957D-02     -0.206709D-02
   yyy       -0.571317D+01     -0.493573D-01     -0.183185D-01
   xxz        0.306132D+02      0.264474D+00      0.981570D-01
   yxz        0.297426D+01      0.256953D-01      0.953656D-02
   yyz        0.591041D+02      0.510613D+00      0.189509D+00
   zxz       -0.631563D+00     -0.545622D-02     -0.202502D-02
   zyz       -0.639666D+01     -0.552621D-01     -0.205100D-01
   zzz        0.544310D+04      0.470241D+02      0.174525D+02

 ----------------------------------------------------------------------
 1|1|UNPC-HS-R-MBKE-2023|Freq|RPM7|ZDO|C2H8I1N1|15816|13-Dec-2025|0||#P
  Geom=AllCheck Guess=TCheck SCRF=Check GenChk RPM7/ZDO Freq||title: Me
 NH2_Fine_TS||0,1|C,-3.8109419801,-0.700689049,0.0000053342|N,-3.110179
 3076,0.6117015213,0.000053559|H,-3.5199432699,-1.2878545971,-0.8905610
 07|H,-4.9074850216,-0.5985409804,0.0000981468|H,-3.5198037306,-1.28799
 29929,0.8904347054|H,-3.3504380175,1.1575059177,-0.8269687184|H,-3.350
 3249763,1.1573837878,0.8271891517|C,-1.2738000133,0.3435548628,-0.0000
 892899|I,1.3771467695,-0.03528251,-0.0003515226|H,-1.2503055146,-0.205
 7041344,0.9356924271|H,-1.0254613789,1.4005069165,-0.0002067974|H,-1.2
 50459559,-0.2058617423,-0.935787989||Version=EM64W-G16RevA.03|State=1-
 A|HF=0.0419059|RMSD=1.125e-009|RMSF=5.729e-005|ZeroPoint=0.0938769|The
 rmal=0.1005252|Dipole=-5.3562185,0.5527355,0.0004681|DipoleDeriv=-0.78
 61159,0.1167188,0.0000253,0.2408145,-0.1797502,0.0000121,0.0000327,0.0
 000218,-0.5634664,-2.0899776,0.2111398,0.0001531,0.166339,-0.3998652,-
 0.0000158,0.0001288,-0.0000188,-0.366839,0.2152684,-0.0406046,0.002858
 3,0.0459236,0.1878798,0.0537774,0.0722373,0.0310238,0.2374329,0.251697
 1,-0.0264347,-0.0000066,-0.0537799,0.09917,-0.0000032,-0.0000083,-0.00
 00053,0.1942924,0.2152575,-0.0406106,-0.0028593,0.0459276,0.1878941,-0
 .0537937,-0.0722256,-0.0310267,0.2374316,0.0652019,0.0125847,-0.053100
 2,-0.072269,0.211574,-0.0492922,0.1180663,-0.109864,0.298343,0.0651929
 ,0.0125935,0.0531349,-0.0722451,0.2115518,0.0492922,-0.1180433,0.10984
 98,0.2983762,4.9705627,-0.5484428,-0.000448,-0.7146616,-0.1584919,0.00
 00589,-0.0004371,0.0000464,-0.2156405,-2.195981,0.1519906,0.0001344,0.
 2245362,-0.7118059,-0.0000197,0.0001518,-0.0000152,-0.688013,-0.231344
 8,0.0291135,0.0263175,0.1276463,0.1528414,-0.0408159,-0.1235129,-0.017
 9563,0.2114006,-0.2484469,0.0928431,0.0000296,-0.0659038,0.2461463,0.0
 000021,0.0000406,-0.0000179,0.1453116,-0.2313263,0.029111,-0.026239,0.
 1276747,0.1528548,0.0407977,0.1235696,0.0179626,0.211369|Polar=142.374
 5434,-11.197669,25.0041959,-0.0107976,0.0011239,20.2403567|HyperPolar=
 -5361.1269458,534.5895967,-113.5720913,18.0659398,0.4906783,-0.0523953
 ,0.0066133,-30.120463,3.3580983,0.0108871|PG=C01 [X(C2H8I1N1)]|NImag=1
 ||0.41922384,0.01939470,0.45315472,0.00000153,0.00000099,0.42187305,-0
 .10999466,-0.05633650,-0.00000227,0.27063174,-0.08282096,-0.18905973,-
 0.00000221,0.05928995,0.50960554,-0.00000417,-0.00000401,-0.08130560,0
 .00001711,-0.00000011,0.45236957,-0.05121145,0.02685517,0.04062794,0.0
 0514185,-0.01135756,-0.01128587,0.05387890,0.02278601,-0.08018851,-0.0
 6516634,-0.00017584,-0.03557453,-0.02869812,-0.02216799,0.11380960,0.0
 3776850,-0.07434545,-0.15124804,-0.00298859,-0.01278550,-0.00164798,-0
 .04504136,0.09502602,0.17736563,-0.20496332,0.01750879,0.00001426,-0.0
 2837009,-0.01735872,0.00000111,-0.01222265,0.00685243,0.00695185,0.257
 87296,0.02683289,-0.03920074,-0.00000214,-0.03667708,-0.01104151,0.000
 00172,0.01208581,0.00034961,-0.00338878,-0.01233887,0.05168883,0.00001
 500,-0.00000137,-0.03845199,-0.00000039,0.00000018,0.00349797,0.019566
 30,-0.00649590,-0.00064408,-0.00001822,0.00000226,0.03525204,-0.051223
 87,0.02687319,-0.04063948,0.00514407,-0.01135735,0.01128305,0.00594319
 ,-0.00191741,0.00403419,-0.01222676,0.01208938,-0.01956262,0.05389287,
 0.02280215,-0.08021022,0.06517388,-0.00017188,-0.03558101,0.02869293,-
 0.00191759,0.00687723,-0.00520581,0.00685451,0.00034808,0.00649497,-0.
 02218994,0.11383926,-0.03778062,0.07435227,-0.15121408,0.00298752,0.01
 278206,-0.00164376,-0.00403933,0.00521108,-0.02508299,-0.00694897,0.00
 338704,-0.00063840,0.04505727,-0.09503245,0.17732209,0.00361419,-0.013
 73811,0.01672657,-0.05826377,0.03052548,-0.05281517,0.00075966,0.00052
 696,0.00007479,0.00019988,-0.00136116,0.00054774,-0.00127931,-0.002670
 04,-0.00082140,0.05681808,0.00138859,-0.03340054,0.02936952,0.01669143
 ,-0.10321120,0.07457949,-0.00022020,-0.00180770,0.00043712,-0.00048350
 ,-0.00022070,0.00058387,-0.00235655,-0.00374457,-0.00030135,-0.0173953
 2,0.13054216,0.00455838,0.01126538,-0.00005834,-0.02951166,0.06761631,
 -0.16937151,-0.00001319,0.00003886,0.00094142,0.00071311,0.00065465,0.
 00037617,-0.00047711,-0.00028719,0.00018028,0.04067184,-0.09402032,0.1
 9773334,0.00361126,-0.01373724,-0.01672912,-0.05825248,0.03050839,0.05
 280459,-0.00127914,-0.00267016,0.00082121,0.00019971,-0.00136116,-0.00
 054792,0.00075962,0.00052697,-0.00007469,0.00572861,-0.00412851,-0.007
 84953,0.05680698,0.00138523,-0.03339459,-0.02937468,0.01667672,-0.1031
 9024,-0.07457207,-0.00235655,-0.00374465,0.00030111,-0.00048349,-0.000
 22050,-0.00058390,-0.00022027,-0.00180764,-0.00043750,-0.00412788,0.01
 282740,0.01321988,-0.01737676,0.13051459,-0.00455868,-0.01126845,-0.00
 006143,0.02949909,-0.06761076,-0.16940378,0.00047695,0.00028697,0.0001
 8019,-0.00071316,-0.00065455,0.00037618,0.00001319,-0.00003934,0.00094
 134,0.00784397,-0.01321291,-0.03061156,-0.04065503,0.09401283,0.197772
 25,0.00260022,-0.00733447,-0.00000055,0.08145685,-0.01209392,-0.000008
 65,-0.00078152,-0.00485837,-0.00272892,-0.00072072,0.00245134,0.000000
 26,-0.00078103,-0.00485884,0.00272828,0.00140579,0.00585835,-0.0096559
 5,0.00140859,0.00585684,0.00965650,-0.11133676,-0.01350306,0.00231736,
 0.00000102,-0.01375084,-0.02805697,0.00000104,-0.00021846,0.00057475,0
 .00037858,-0.00036240,-0.00191034,-0.00000012,-0.00021843,0.00057480,-
 0.00037842,0.00643959,-0.00126969,0.00182658,0.00643776,-0.00126910,-0
 .00182768,0.07424128,0.41870730,-0.00000118,0.00000063,0.00122458,-0.0
 0000922,0.00000084,-0.03074156,-0.00028078,-0.00024801,-0.00017446,0.0
 0000004,-0.00000031,0.00008015,0.00028080,0.00024881,-0.00017493,-0.01
 140672,0.00245681,0.00020736,0.01140740,-0.00245783,0.00020382,0.00004
 245,-0.00000839,0.42783832,-0.00406386,0.00066327,0.00000035,-0.026702
 57,0.00344181,0.00000242,0.00046961,0.00118865,0.00090335,0.00034889,-
 0.00058874,-0.00000008,0.00046946,0.00118881,-0.00090326,-0.00188431,-
 0.00069093,0.00150704,-0.00188466,-0.00069069,-0.00150691,0.05461334,-
 0.00830185,-0.00000502,0.04361492,0.00075309,-0.00005700,-0.00000008,0
 .00398488,0.00129691,-0.00000031,0.00009463,-0.00030059,-0.00016069,-0
 .00000772,0.00018773,0.00000002,0.00009467,-0.00030063,0.00016065,0.00
 002949,-0.00002874,-0.00015765,0.00002958,-0.00002877,0.00015767,-0.00
 889644,-0.00445213,0.00000078,-0.00518102,0.00584982,0.00000046,-0.000
 00009,0.00028291,0.00000288,-0.00000033,0.00195290,0.00008185,-0.00003
 312,-0.00015652,-0.00000003,0.00000008,-0.00005223,-0.00008195,0.00003
 289,-0.00015632,0.00042456,-0.00005414,-0.00023137,-0.00042423,0.00005
 430,-0.00023100,-0.00000704,0.00000102,-0.00575707,-0.00000257,0.00000
 047,0.00523769,-0.00220877,-0.00030454,-0.00052625,-0.02514877,0.01258
 569,-0.01516202,-0.00010052,0.00021731,0.00000903,-0.00001317,-0.00020
 881,-0.00000770,-0.00054425,-0.00014190,-0.00000177,-0.00333752,0.0003
 9838,0.00039914,-0.00167379,0.00084942,-0.00015847,-0.00650411,-0.0047
 8218,-0.00002222,-0.02268842,-0.00046598,0.00672190,0.05400652,0.00005
 413,0.00003723,0.00011591,0.00874312,-0.00236767,0.00425988,-0.0002151
 0,0.00003740,-0.00020082,-0.00007681,-0.00010205,-0.00001224,-0.000515
 43,0.00006139,0.00002001,0.00045699,0.00010544,0.00004834,0.00103308,-
 0.00020076,0.00004161,-0.00458468,-0.08636707,0.07810960,0.00069405,0.
 00095618,0.00047773,-0.00452255,0.09355942,-0.00035826,-0.00019434,-0.
 00051550,-0.00859048,0.00328872,-0.00243524,-0.00016221,-0.00003036,0.
 00005312,-0.00001434,0.00004679,0.00007431,-0.00009138,-0.00013288,0.0
 0037184,0.00013364,0.00010830,0.00005862,0.00044617,-0.00005267,0.0005
 5263,-0.00057633,0.07852046,-0.17562608,0.00462212,0.00076952,-0.00110
 835,0.00428808,-0.09532602,0.19970679,-0.00317447,0.00046066,0.0000003
 1,-0.03049897,-0.01394980,0.00000404,-0.00005329,0.00036049,0.00019424
 ,-0.00009147,-0.00071495,-0.00000005,-0.00005333,0.00036052,-0.0001941
 7,-0.00208741,0.00008894,-0.00050100,-0.00208702,0.00008889,0.00050121
 ,-0.01485777,-0.04118604,0.00000105,-0.01959899,0.01003192,0.00000155,
 0.00403395,-0.00097847,0.00067035,0.06443564,0.00087296,-0.00003592,-0
 .00000007,-0.00701665,-0.00045048,0.00000079,-0.00006670,-0.00009411,-
 0.00003567,-0.00002745,0.00022397,0.00000002,-0.00006668,-0.00009412,0
 .00003567,0.00028105,0.00040902,-0.00016315,0.00028117,0.00040885,0.00
 016312,-0.04118349,-0.21245639,0.00001913,0.00758345,-0.00407893,-0.00
 000040,-0.00353807,-0.01405848,0.00504581,0.04642007,0.24428969,0.0000
 0012,-0.00000003,-0.00001000,0.00000341,0.00000142,0.00116706,-0.00002
 162,-0.00002390,0.00004180,0.,0.00000002,0.00005558,0.00002163,0.00002
 384,0.00004180,-0.00093402,0.00000111,0.00022304,0.00093435,-0.0000010
 9,0.00022262,0.00000132,0.00001888,-0.04148178,0.00000149,-0.00000055,
 0.00132513,0.00409737,0.02042774,0.00073361,-0.00000684,-0.00002240,0.
 03694234,-0.00220925,-0.00030477,0.00052670,-0.02514399,0.01258716,0.0
 1516356,-0.00054454,-0.00014204,0.00000172,-0.00001315,-0.00020874,0.0
 0000768,-0.00010057,0.00021727,-0.00000888,-0.00167375,0.00084922,0.00
 015892,-0.00333753,0.00039844,-0.00039867,-0.00650265,-0.00479545,-0.0
 0000659,-0.02269315,-0.00046714,-0.00671738,0.00417878,-0.00008831,-0.
 00036732,0.00403309,-0.00353960,-0.00409720,0.05400664,0.00005420,0.00
 003734,-0.00011579,0.00874308,-0.00236886,-0.00426123,-0.00051546,0.00
 006149,-0.00002007,-0.00007682,-0.00010207,0.00001222,-0.00021519,0.00
 003742,0.00020090,0.00103288,-0.00020088,-0.00004181,0.00045682,0.0001
 0543,-0.00004838,-0.00459740,-0.08639263,-0.07812204,0.00069293,0.0009
 5617,-0.00047839,-0.00008678,0.00833901,0.00795664,-0.00098221,-0.0140
 6305,-0.02042503,-0.00450604,0.09359066,0.00035890,0.00019448,-0.00051
 566,0.00859260,-0.00329062,-0.00243796,0.00009142,0.00013286,0.0003719
 0,0.00001434,-0.00004676,0.00007430,0.00016231,0.00003035,0.00005313,-
 0.00044591,0.00005256,0.00055251,-0.00013307,-0.00010843,0.00005870,0.
 00054863,-0.07853296,-0.17559827,-0.00461894,-0.00076983,-0.00110589,0
 .00036291,-0.00796170,-0.02186568,-0.00067068,-0.00504284,0.00073875,-
 0.00426254,0.09534293,0.19967422||0.00003503,0.00000073,0.,0.00002911,
 0.00000855,0.00000014,-0.00000150,0.00000039,-0.00000034,0.00000243,0.
 00000412,-0.00000005,-0.00000155,0.00000040,0.00000030,0.00001974,-0.0
 0000879,0.00000540,0.00001976,-0.00000910,-0.00000530,-0.00029942,0.00
 002682,0.00000288,-0.00000550,0.00000559,-0.00000073,0.00006738,0.0000
 2153,-0.00005089,0.00006463,-0.00007093,-0.00000076,0.00006991,0.00002
 069,0.00004935|||@


 NEVER TEACH A PIG TO SING.
 IT WASTES YOUR TIME AND ANNOYS THE PIG.
     -- SEEN ON A GREETING CARD
 Job cpu time:       0 days  0 hours  0 minutes  4.0 seconds.
 Elapsed time:       0 days  0 hours  0 minutes  3.0 seconds.
 File lengths (MBytes):  RWF=      8 Int=      0 D2E=      0 Chk=      2 Scr=      1
 Normal termination of Gaussian 16 at Sat Dec 13 12:25:24 2025.
