 Entering Gaussian System, Link 0=g16.exe
 Input=MeNH2_irc.gjf
 Output=MeNH2_irc.log
 Initial command:
 D:\G16W\l1.exe ".\Gau-27772.inp" "MeNH2_irc.log" /scrdir=".\"
 Entering Link 1 = D:\G16W\l1.exe PID=     14216.
  
 Copyright (c) 1988,1990,1992,1993,1995,1998,2003,2009,2016,
            Gaussian, Inc.  All Rights Reserved.
  
 This is part of the Gaussian(R) 16 program.  It is based on
 the Gaussian(R) 09 system (copyright 2009, Gaussian, Inc.),
 the Gaussian(R) 03 system (copyright 2003, Gaussian, Inc.),
 the Gaussian(R) 98 system (copyright 1998, Gaussian, Inc.),
 the Gaussian(R) 94 system (copyright 1995, Gaussian, Inc.),
 the Gaussian 92(TM) system (copyright 1992, Gaussian, Inc.),
 the Gaussian 90(TM) system (copyright 1990, Gaussian, Inc.),
 the Gaussian 88(TM) system (copyright 1988, Gaussian, Inc.),
 the Gaussian 86(TM) system (copyright 1986, Carnegie Mellon
 University), and the Gaussian 82(TM) system (copyright 1983,
 Carnegie Mellon University). Gaussian is a federally registered
 trademark of Gaussian, Inc.
  
 This software contains proprietary and confidential information,
 including trade secrets, belonging to Gaussian, Inc.
  
 This software is provided under written license and may be
 used, copied, transmitted, or stored only in accord with that
 written license.
  
 The following legend is applicable only to US Government
 contracts under FAR:
  
                    RESTRICTED RIGHTS LEGEND
  
 Use, reproduction and disclosure by the US Government is
 subject to restrictions as set forth in subparagraphs (a)
 and (c) of the Commercial Computer Software - Restricted
 Rights clause in FAR 52.227-19.
  
 Gaussian, Inc.
 340 Quinnipiac St., Bldg. 40, Wallingford CT 06492
  
  
 ---------------------------------------------------------------
 Warning -- This program may not be used in any manner that
 competes with the business of Gaussian, Inc. or will provide
 assistance to any competitor of Gaussian, Inc.  The licensee
 of this program is prohibited from giving any competitor of
 Gaussian, Inc. access to this program.  By using this program,
 the user acknowledges that Gaussian, Inc. is engaged in the
 business of creating and licensing software in the field of
 computational chemistry and represents and warrants to the
 licensee that it is not a competitor of Gaussian, Inc. and that
 it will not use this program in any manner prohibited above.
 ---------------------------------------------------------------
  

 Cite this work as:
 Gaussian 16, Revision A.03,
 M. J. Frisch, G. W. Trucks, H. B. Schlegel, G. E. Scuseria, 
 M. A. Robb, J. R. Cheeseman, G. Scalmani, V. Barone, 
 G. A. Petersson, H. Nakatsuji, X. Li, M. Caricato, A. V. Marenich, 
 J. Bloino, B. G. Janesko, R. Gomperts, B. Mennucci, H. P. Hratchian, 
 J. V. Ortiz, A. F. Izmaylov, J. L. Sonnenberg, D. Williams-Young, 
 F. Ding, F. Lipparini, F. Egidi, J. Goings, B. Peng, A. Petrone, 
 T. Henderson, D. Ranasinghe, V. G. Zakrzewski, J. Gao, N. Rega, 
 G. Zheng, W. Liang, M. Hada, M. Ehara, K. Toyota, R. Fukuda, 
 J. Hasegawa, M. Ishida, T. Nakajima, Y. Honda, O. Kitao, H. Nakai, 
 T. Vreven, K. Throssell, J. A. Montgomery, Jr., J. E. Peralta, 
 F. Ogliaro, M. J. Bearpark, J. J. Heyd, E. N. Brothers, K. N. Kudin, 
 V. N. Staroverov, T. A. Keith, R. Kobayashi, J. Normand, 
 K. Raghavachari, A. P. Rendell, J. C. Burant, S. S. Iyengar, 
 J. Tomasi, M. Cossi, J. M. Millam, M. Klene, C. Adamo, R. Cammi, 
 J. W. Ochterski, R. L. Martin, K. Morokuma, O. Farkas, 
 J. B. Foresman, and D. J. Fox, Gaussian, Inc., Wallingford CT, 2016.
 
 ******************************************
 Gaussian 16:  EM64W-G16RevA.03 17-Dec-2016
                13-Dec-2025 
 ******************************************
 %nproc=6
 Will use up to    6 processors via shared memory.
 %mem=4GB
 ------------------------------------------
 #PM7 IRC(CalcFC, MaxPoints=20, StepSize=5)
 ------------------------------------------
 1/10=4,18=10,26=1,38=1,39=5,42=20,44=3,172=1/1,23;
 2/12=2,17=6,18=5,29=1,40=1/2;
 3/5=2,25=1,41=4200000,71=2,140=1/1,2,3;
 4/35=1/1;
 5/5=2,35=1,38=5/2;
 8/6=4,10=90,11=11/1;
 11/6=1,8=1,9=11,15=111,16=1/1,2,10;
 10/6=1,13=1/2;
 6/7=2,8=2,9=2,10=2,28=1/1;
 7/10=1,18=20,25=1/1,2,3,16;
 1/10=4,18=10,26=1,39=5,42=20,44=3/23(2);
 2/29=1/2;
 99/5=20/99;
 2/29=1/2;
 3/5=2,25=1,41=4200000,71=2,135=20,140=1/1,2,3;
 4/5=5,16=3,35=1/1;
 5/5=2,35=1,38=5/2;
 8/6=4,10=90,11=11/1;
 11/6=1,8=1,9=11,15=111,16=1/1,2,10;
 10/6=1,13=1/2;
 7/10=1,18=20,25=1/1,2,3,16;
 1/18=10,26=1,39=5,42=20,44=3/23(-8);
 2/29=1/2;
 6/7=2,8=2,9=2,10=2,19=2,28=1/1;
 99/5=20,9=1/99;
 Leave Link    1 at Sat Dec 13 14:55:22 2025, MaxMem=   536870912 cpu:               0.0 elap:               0.1
 (Enter D:\G16W\l101.exe)
 ----------------
 title: MeNH2_IRC
 ----------------
 Symbolic Z-matrix:
 Charge =  0 Multiplicity = 1
 C                     3.79443  -0.69592  -0.00024 
 N                     3.0903    0.61466  -0.00029 
 H                     3.50494  -1.28384   0.89033 
 H                     4.89071  -0.59096  -0.00033 
 H                     3.5048   -1.28397  -0.89067 
 H                     3.32915   1.16108   0.82673 
 H                     3.32904   1.16096  -0.82743 
 C                     1.25461   0.3418   -0.00015 
 I                    -1.39535  -0.04385   0.00012 
 H                     1.23253  -0.20752  -0.93593 
 H                     1.00356   1.39811  -0.00003 
 H                     1.23268  -0.20768   0.93555 
 
 ITRead=  0  0  0  0  0  0  0  0  0  0  0  0
 MicOpt= -1 -1 -1 -1 -1 -1 -1 -1 -1 -1 -1 -1
 NAtoms=     12 NQM=       12 NQMF=       0 NMMI=      0 NMMIF=      0
                NMic=       0 NMicF=      0.
                    Isotopes and Nuclear Properties:
 (Nuclear quadrupole moments (NQMom) in fm**2, nuclear magnetic moments (NMagM)
  in nuclear magnetons)

  Atom         1           2           3           4           5           6           7           8           9          10
 IAtWgt=          12          14           1           1           1           1           1          12         127           1
 AtmWgt=  12.0000000  14.0030740   1.0078250   1.0078250   1.0078250   1.0078250   1.0078250  12.0000000 126.9004000   1.0078250
 NucSpn=           0           2           1           1           1           1           1           0           5           1
 AtZEff=   0.0000000   0.0000000   0.0000000   0.0000000   0.0000000   0.0000000   0.0000000   0.0000000   0.0000000   0.0000000
 NQMom=    0.0000000   2.0440000   0.0000000   0.0000000   0.0000000   0.0000000   0.0000000   0.0000000 -71.0000000   0.0000000
 NMagM=    0.0000000   0.4037610   2.7928460   2.7928460   2.7928460   2.7928460   2.7928460   0.0000000   2.8132800   2.7928460
 AtZNuc=   6.0000000   7.0000000   1.0000000   1.0000000   1.0000000   1.0000000   1.0000000   6.0000000  53.0000000   1.0000000

  Atom        11          12
 IAtWgt=           1           1
 AtmWgt=   1.0078250   1.0078250
 NucSpn=           1           1
 AtZEff=   0.0000000   0.0000000
 NQMom=    0.0000000   0.0000000
 NMagM=    2.7928460   2.7928460
 AtZNuc=   1.0000000   1.0000000
 Leave Link  101 at Sat Dec 13 14:55:22 2025, MaxMem=   536870912 cpu:               0.0 elap:               0.2
 (Enter D:\G16W\l123.exe)
 IRC-IRC-IRC-IRC-IRC-IRC-IRC-IRC-IRC-IRC-IRC-IRC-IRC-IRC-IRC-IRC-IRC-IRC
 ------------------------------------------------------------------------
 INPUT DATA FOR L123
 ------------------------------------------------------------------------
 GENERAL PARAMETERS:
 Follow reaction path in both directions.
 Maximum points per path      =  20
 Step size                    =   0.050 bohr
 Integration scheme           = HPC                                 
    Redo corrector integration= Yes                                 
    DWI Weight Power          =  2
    DWI will use Hessian update vectors when possible.
    Max correction cycles     =  20
 Initial Hessian              = CalcFC
 Hessian evaluation           = All updating
 Hessian updating method      = Bofill                              
 ------------------------------------------------------------------------
 IRC-IRC-IRC-IRC-IRC-IRC-IRC-IRC-IRC-IRC-IRC-IRC-IRC-IRC-IRC-IRC-IRC-IRC
 Leave Link  123 at Sat Dec 13 14:55:23 2025, MaxMem=   536870912 cpu:               0.0 elap:               0.1
 (Enter D:\G16W\l202.exe)
                          Input orientation:                          
 ---------------------------------------------------------------------
 Center     Atomic      Atomic             Coordinates (Angstroms)
 Number     Number       Type             X           Y           Z
 ---------------------------------------------------------------------
      1          6           0        3.794428   -0.695924   -0.000241
      2          7           0        3.090296    0.614662   -0.000289
      3          1           0        3.504939   -1.283835    0.890325
      4          1           0        4.890705   -0.590958   -0.000334
      5          1           0        3.504800   -1.283974   -0.890671
      6          1           0        3.329151    1.161082    0.826733
      7          1           0        3.329039    1.160959   -0.827425
      8          6           0        1.254612    0.341798   -0.000147
      9         53           0       -1.395353   -0.043850    0.000116
     10          1           0        1.232528   -0.207520   -0.935928
     11          1           0        1.003558    1.398108   -0.000029
     12          1           0        1.232683   -0.207677    0.935552
 ---------------------------------------------------------------------
                    Distance matrix (angstroms):
                    1          2          3          4          5
     1  C    0.000000
     2  N    1.487763   0.000000
     3  H    1.105690   2.137619   0.000000
     4  H    1.101291   2.166793   1.787092   0.000000
     5  H    1.105691   2.137618   1.780996   1.787094   0.000000
     6  H    2.085387   1.019604   2.452053   2.488400   2.993097
     7  H    2.085386   1.019604   2.993096   2.488392   2.452058
     8  C    2.743635   1.855853   2.915406   3.753826   2.915393
     9  I    5.230586   4.533728   5.132533   6.309822   5.132534
    10  H    2.770809   2.236673   3.107653   3.795342   2.514761
    11  H    3.489115   2.228960   3.773918   4.366497   3.773992
    12  H    2.770673   2.236686   2.514619   3.795249   3.107414
                    6          7          8          9         10
     6  H    0.000000
     7  H    1.654158   0.000000
     8  C    2.378796   2.378794   0.000000
     9  I    4.945310   4.945328   2.677880   0.000000
    10  H    3.062005   2.505966   1.085322   2.794410   0.000000
    11  H    2.479536   2.479654   1.085734   2.798931   1.872532
    12  H    2.506097   3.062019   1.085328   2.794361   1.871480
                   11         12
    11  H    0.000000
    12  H    1.872527   0.000000
 Symmetry turned off by external request.
 Stoichiometry    C2H8IN
 Framework group  C1[X(C2H8IN)]
 Deg. of freedom    30
 Full point group                 C1      NOp   1
 Rotational constants (GHZ):          19.5102869           0.7927799           0.7728737
 Leave Link  202 at Sat Dec 13 14:55:23 2025, MaxMem=   536870912 cpu:               0.0 elap:               0.0
 (Enter D:\G16W\l301.exe)
 Standard basis: VSTO-6G (5D, 7F)
 Ernie: Thresh=  0.10000D-02 Tol=  0.10000D-05 Strict=F.
 EHB=         0.000000000 Number of Hydrogen Bonds=     0
  NNHCO=     0 NNPyr=     0 NCTC=     0               EPep=         0.000000000
    EC=        62.651112635  ECS=         1.705700616   EG=         0.306481427
   EHC=         0.000431358  EAt=       -26.623642591  AtH=         1.429640566
 EPDDG=         0.000000000  ECC=        64.663726037 EAtT=        28.053283157
  EHyb=         0.000000000
    29 basis functions,   180 primitive gaussians,    30 cartesian basis functions
    14 alpha electrons       14 beta electrons
       nuclear repulsion energy        92.7170091933 Hartrees.
 IExCor=    0 DFT=F Ex=HF Corr=None ExCW=0 ScaHFX=  1.000000
 ScaDFX=  1.000000  1.000000  1.000000  1.000000 ScalE2=  1.000000  1.000000
 IRadAn=      5 IRanWt=     -1 IRanGd=            0 ICorTp=0 IEmpDi=251
 Integral buffers will be    131072 words long.
 Regular integral format.
 Two-electron integral symmetry is turned off.
 R6Disp:  PM7 Dispersion energy=       -0.0013214728 Hartrees.
 Nuclear repulsion after empirical dispersion term =       92.7156877206 Hartrees.
 Leave Link  301 at Sat Dec 13 14:55:23 2025, MaxMem=   536870912 cpu:               0.0 elap:               0.1
 (Enter D:\G16W\l302.exe)
 Do NDO integrals.
 NPDir=0 NMtPBC=     1 NCelOv=     1 NCel=       1 NClECP=     1 NCelD=      1
         NCelK=      1 NCelE2=     1 NClLst=     1 CellRange=     0.0.
 One-electron integrals computed using PRISM.
 NBasis=    29 RedAO= F EigKep=  0.00D+00  NBF=    29
 NBsUse=    29 1.00D-04 EigRej=  0.00D+00 NBFU=    29
 Leave Link  302 at Sat Dec 13 14:55:23 2025, MaxMem=   536870912 cpu:               0.0 elap:               0.2
 (Enter D:\G16W\l303.exe)
 DipDrv:  MaxL=1.
 Leave Link  303 at Sat Dec 13 14:55:24 2025, MaxMem=   536870912 cpu:               1.0 elap:               0.1
 (Enter D:\G16W\l401.exe)
 Nonelectrostatic core Hamiltonian diagonalized for initial guess.
 JPrj=0 DoOrth=F DoCkMO=F.
 Leave Link  401 at Sat Dec 13 14:55:24 2025, MaxMem=   536870912 cpu:               0.0 elap:               0.2
 (Enter D:\G16W\l502.exe)
 Keep J ints in memory in canonical form, NReq=1850439.
 FoFCou: FMM=F IPFlag=           0 FMFlag=           0 FMFlg1=           0
         NFxFlg=           0 DoJE=F BraDBF=F KetDBF=F FulRan=T
         wScrn=  0.000000 ICntrl=       600 IOpCl=  2 I1Cent=           0 NGrid=           0
         NMat0=    1 NMatS0=     83 NMatT0=    0 NMatD0=    1 NMtDS0=    0 NMtDT0=    0
 Symmetry not used in FoFCou.
 Two-electron integral symmetry not used.
 Closed shell SCF:
 Using DIIS extrapolation, IDIIS=  1040.
 Overlap will be assumed to be unity.
 NGot=   536870912 LenX=   536805876 LenY=   536804535
 Requested convergence on RMS density matrix=1.00D-08 within 128 cycles.
 Requested convergence on MAX density matrix=1.00D-06.
 Requested convergence on             energy=1.00D-06.
 No special actions if energy rises.

 Cycle   1  Pass 1  IDiag  1:
 E= 0.425234425090466    
 DIIS: error= 3.90D-02 at cycle   1 NSaved=   1.
 NSaved= 1 IEnMin= 1 EnMin= 0.425234425090466     IErMin= 1 ErrMin= 3.90D-02
 ErrMax= 3.90D-02  0.00D+00 EMaxC= 1.00D-01 BMatC= 7.16D-02 BMatP= 7.16D-02
 IDIUse=3 WtCom= 6.10D-01 WtEn= 3.90D-01
 Coeff-Com:  0.100D+01
 Coeff-En:   0.100D+01
 Coeff:      0.100D+01
 GapD=    2.000 DampG=2.000 DampE=0.500 DampFc=1.0000 IDamp=-1.
 RMSDP=1.98D-02 MaxDP=1.39D-01              OVMax= 0.00D+00

 Cycle   2  Pass 1  IDiag  1:
 E= 0.127778020530599     Delta-E=       -0.297456404560 Rises=F Damp=F
 DIIS: error= 1.95D-02 at cycle   2 NSaved=   2.
 NSaved= 2 IEnMin= 2 EnMin= 0.127778020530599     IErMin= 2 ErrMin= 1.95D-02
 ErrMax= 1.95D-02  0.00D+00 EMaxC= 1.00D-01 BMatC= 1.49D-02 BMatP= 7.16D-02
 IDIUse=3 WtCom= 8.05D-01 WtEn= 1.95D-01
 Coeff-Com: -0.595D+00 0.160D+01
 Coeff-En:   0.000D+00 0.100D+01
 Coeff:     -0.479D+00 0.148D+01
 RMSDP=1.33D-02 MaxDP=1.05D-01 DE=-2.97D-01 OVMax= 0.00D+00

 Cycle   3  Pass 1  IDiag  3:
 E= 0.489533449154891E-01 Delta-E=       -0.078824675615 Rises=F Damp=F
 DIIS: error= 6.14D-03 at cycle   3 NSaved=   3.
 NSaved= 3 IEnMin= 3 EnMin= 0.489533449154891E-01 IErMin= 3 ErrMin= 6.14D-03
 ErrMax= 6.14D-03  0.00D+00 EMaxC= 1.00D-01 BMatC= 1.16D-03 BMatP= 1.49D-02
 IDIUse=3 WtCom= 9.39D-01 WtEn= 6.14D-02
 Coeff-Com:  0.101D-02-0.262D+00 0.126D+01
 Coeff-En:   0.000D+00 0.000D+00 0.100D+01
 Coeff:      0.951D-03-0.246D+00 0.125D+01
 Gap=     0.272 Goal=   None    Shift=    0.000
 RMSDP=4.19D-03 MaxDP=3.36D-02 DE=-7.88D-02 OVMax= 4.04D-02

 Cycle   4  Pass 1  IDiag  3:
 E= 0.424856822709927E-01 Delta-E=       -0.006467662644 Rises=F Damp=F
 DIIS: error= 1.86D-03 at cycle   4 NSaved=   4.
 NSaved= 4 IEnMin= 4 EnMin= 0.424856822709927E-01 IErMin= 4 ErrMin= 1.86D-03
 ErrMax= 1.86D-03  0.00D+00 EMaxC= 1.00D-01 BMatC= 9.14D-05 BMatP= 1.16D-03
 IDIUse=3 WtCom= 9.81D-01 WtEn= 1.86D-02
 Coeff-Com:  0.498D-01-0.910D-01-0.248D+00 0.129D+01
 Coeff-En:   0.000D+00 0.000D+00 0.000D+00 0.100D+01
 Coeff:      0.489D-01-0.894D-01-0.244D+00 0.128D+01
 Gap=     0.269 Goal=   None    Shift=    0.000
 RMSDP=1.26D-03 MaxDP=9.85D-03 DE=-6.47D-03 OVMax= 1.34D-02

 Cycle   5  Pass 1  IDiag  3:
 E= 0.419544620976069E-01 Delta-E=       -0.000531220173 Rises=F Damp=F
 DIIS: error= 5.74D-04 at cycle   5 NSaved=   5.
 NSaved= 5 IEnMin= 5 EnMin= 0.419544620976069E-01 IErMin= 5 ErrMin= 5.74D-04
 ErrMax= 5.74D-04  0.00D+00 EMaxC= 1.00D-01 BMatC= 7.86D-06 BMatP= 9.14D-05
 IDIUse=3 WtCom= 9.94D-01 WtEn= 5.74D-03
 Coeff-Com: -0.179D-01 0.383D-01 0.681D-01-0.643D+00 0.155D+01
 Coeff-En:   0.000D+00 0.000D+00 0.000D+00 0.000D+00 0.100D+01
 Coeff:     -0.178D-01 0.380D-01 0.677D-01-0.639D+00 0.155D+01
 Gap=     0.268 Goal=   None    Shift=    0.000
 RMSDP=3.87D-04 MaxDP=3.40D-03 DE=-5.31D-04 OVMax= 2.73D-03

 Cycle   6  Pass 1  IDiag  3:
 E= 0.419077534685357E-01 Delta-E=       -0.000046708629 Rises=F Damp=F
 DIIS: error= 8.04D-05 at cycle   6 NSaved=   6.
 NSaved= 6 IEnMin= 6 EnMin= 0.419077534685357E-01 IErMin= 6 ErrMin= 8.04D-05
 ErrMax= 8.04D-05  0.00D+00 EMaxC= 1.00D-01 BMatC= 3.03D-07 BMatP= 7.86D-06
 IDIUse=1 WtCom= 1.00D+00 WtEn= 0.00D+00
 Coeff-Com:  0.154D-02-0.139D-02-0.126D-01 0.935D-01-0.369D+00 0.129D+01
 Coeff:      0.154D-02-0.139D-02-0.126D-01 0.935D-01-0.369D+00 0.129D+01
 Gap=     0.268 Goal=   None    Shift=    0.000
 RMSDP=6.89D-05 MaxDP=5.66D-04 DE=-4.67D-05 OVMax= 4.65D-04

 Cycle   7  Pass 1  IDiag  3:
 E= 0.419060398402991E-01 Delta-E=       -0.000001713628 Rises=F Damp=F
 DIIS: error= 2.21D-05 at cycle   7 NSaved=   7.
 NSaved= 7 IEnMin= 7 EnMin= 0.419060398402991E-01 IErMin= 7 ErrMin= 2.21D-05
 ErrMax= 2.21D-05  0.00D+00 EMaxC= 1.00D-01 BMatC= 2.05D-08 BMatP= 3.03D-07
 IDIUse=1 WtCom= 1.00D+00 WtEn= 0.00D+00
 Coeff-Com:  0.513D-03-0.164D-02 0.409D-03-0.568D-02 0.804D-01-0.536D+00
 Coeff-Com:  0.146D+01
 Coeff:      0.513D-03-0.164D-02 0.409D-03-0.568D-02 0.804D-01-0.536D+00
 Coeff:      0.146D+01
 Gap=     0.268 Goal=   None    Shift=    0.000
 RMSDP=1.90D-05 MaxDP=1.59D-04 DE=-1.71D-06 OVMax= 1.42D-04

 Cycle   8  Pass 1  IDiag  3:
 E= 0.419059183190882E-01 Delta-E=       -0.000000121521 Rises=F Damp=F
 DIIS: error= 6.16D-06 at cycle   8 NSaved=   8.
 NSaved= 8 IEnMin= 8 EnMin= 0.419059183190882E-01 IErMin= 8 ErrMin= 6.16D-06
 ErrMax= 6.16D-06  0.00D+00 EMaxC= 1.00D-01 BMatC= 1.09D-09 BMatP= 2.05D-08
 IDIUse=1 WtCom= 1.00D+00 WtEn= 0.00D+00
 Coeff-Com: -0.202D-03 0.545D-03 0.450D-03-0.159D-02-0.145D-01 0.153D+00
 Coeff-Com: -0.609D+00 0.147D+01
 Coeff:     -0.202D-03 0.545D-03 0.450D-03-0.159D-02-0.145D-01 0.153D+00
 Coeff:     -0.609D+00 0.147D+01
 Gap=     0.268 Goal=   None    Shift=    0.000
 RMSDP=4.91D-06 MaxDP=3.35D-05 DE=-1.22D-07 OVMax= 4.03D-05

 Cycle   9  Pass 1  IDiag  3:
 E= 0.419059116824627E-01 Delta-E=       -0.000000006637 Rises=F Damp=F
 DIIS: error= 9.92D-07 at cycle   9 NSaved=   9.
 NSaved= 9 IEnMin= 9 EnMin= 0.419059116824627E-01 IErMin= 9 ErrMin= 9.92D-07
 ErrMax= 9.92D-07  0.00D+00 EMaxC= 1.00D-01 BMatC= 3.61D-11 BMatP= 1.09D-09
 IDIUse=1 WtCom= 1.00D+00 WtEn= 0.00D+00
 Coeff-Com:  0.329D-04-0.660D-04-0.223D-03 0.528D-03 0.227D-02-0.305D-01
 Coeff-Com:  0.151D+00-0.492D+00 0.137D+01
 Coeff:      0.329D-04-0.660D-04-0.223D-03 0.528D-03 0.227D-02-0.305D-01
 Coeff:      0.151D+00-0.492D+00 0.137D+01
 Gap=     0.268 Goal=   None    Shift=    0.000
 RMSDP=7.29D-07 MaxDP=4.55D-06 DE=-6.64D-09 OVMax= 5.28D-06

 Cycle  10  Pass 1  IDiag  3:
 E= 0.419059114961442E-01 Delta-E=       -0.000000000186 Rises=F Damp=F
 DIIS: error= 1.89D-07 at cycle  10 NSaved=  10.
 NSaved=10 IEnMin=10 EnMin= 0.419059114961442E-01 IErMin=10 ErrMin= 1.89D-07
 ErrMax= 1.89D-07  0.00D+00 EMaxC= 1.00D-01 BMatC= 1.32D-12 BMatP= 3.61D-11
 IDIUse=1 WtCom= 1.00D+00 WtEn= 0.00D+00
 Coeff-Com:  0.181D-05-0.102D-04 0.457D-04 0.293D-04-0.646D-03 0.504D-02
 Coeff-Com: -0.264D-01 0.981D-01-0.411D+00 0.133D+01
 Coeff:      0.181D-05-0.102D-04 0.457D-04 0.293D-04-0.646D-03 0.504D-02
 Coeff:     -0.264D-01 0.981D-01-0.411D+00 0.133D+01
 Gap=     0.268 Goal=   None    Shift=    0.000
 RMSDP=1.54D-07 MaxDP=1.37D-06 DE=-1.86D-10 OVMax= 1.33D-06

 Cycle  11  Pass 1  IDiag  3:
 E= 0.419059114881293E-01 Delta-E=       -0.000000000008 Rises=F Damp=F
 DIIS: error= 5.65D-08 at cycle  11 NSaved=  11.
 NSaved=11 IEnMin=11 EnMin= 0.419059114881293E-01 IErMin=11 ErrMin= 5.65D-08
 ErrMax= 5.65D-08  0.00D+00 EMaxC= 1.00D-01 BMatC= 6.21D-14 BMatP= 1.32D-12
 IDIUse=1 WtCom= 1.00D+00 WtEn= 0.00D+00
 Coeff-Com: -0.114D-05 0.435D-05-0.104D-04-0.123D-04 0.134D-03-0.874D-03
 Coeff-Com:  0.482D-02-0.190D-01 0.962D-01-0.465D+00 0.138D+01
 Coeff:     -0.114D-05 0.435D-05-0.104D-04-0.123D-04 0.134D-03-0.874D-03
 Coeff:      0.482D-02-0.190D-01 0.962D-01-0.465D+00 0.138D+01
 Gap=     0.268 Goal=   None    Shift=    0.000
 RMSDP=4.57D-08 MaxDP=6.17D-07 DE=-8.01D-12 OVMax= 5.78D-07

 Cycle  12  Pass 1  IDiag  3:
 E= 0.419059114872766E-01 Delta-E=       -0.000000000001 Rises=F Damp=F
 DIIS: error= 2.44D-08 at cycle  12 NSaved=  12.
 NSaved=12 IEnMin=12 EnMin= 0.419059114872766E-01 IErMin=12 ErrMin= 2.44D-08
 ErrMax= 2.44D-08  0.00D+00 EMaxC= 1.00D-01 BMatC= 5.60D-15 BMatP= 6.21D-14
 IDIUse=1 WtCom= 1.00D+00 WtEn= 0.00D+00
 Coeff-Com:  0.221D-06-0.612D-06-0.152D-06 0.231D-05 0.412D-05-0.872D-04
 Coeff-Com:  0.313D-03-0.539D-03-0.416D-02 0.683D-01-0.435D+00 0.137D+01
 Coeff:      0.221D-06-0.612D-06-0.152D-06 0.231D-05 0.412D-05-0.872D-04
 Coeff:      0.313D-03-0.539D-03-0.416D-02 0.683D-01-0.435D+00 0.137D+01
 Gap=     0.268 Goal=   None    Shift=    0.000
 RMSDP=1.76D-08 MaxDP=2.72D-07 DE=-8.53D-13 OVMax= 2.58D-07

 Cycle  13  Pass 1  IDiag  3:
 E= 0.419059114876461E-01 Delta-E=        0.000000000000 Rises=F Damp=F
 DIIS: error= 1.01D-08 at cycle  13 NSaved=  13.
 NSaved=13 IEnMin=12 EnMin= 0.419059114872766E-01 IErMin=13 ErrMin= 1.01D-08
 ErrMax= 1.01D-08  0.00D+00 EMaxC= 1.00D-01 BMatC= 8.25D-16 BMatP= 5.60D-15
 IDIUse=1 WtCom= 1.00D+00 WtEn= 0.00D+00
 Coeff-Com: -0.386D-08-0.107D-06 0.904D-06-0.216D-06-0.103D-04 0.868D-04
 Coeff-Com: -0.405D-03 0.128D-02-0.407D-02 0.487D-03 0.108D+00-0.774D+00
 Coeff-Com:  0.167D+01
 Coeff:     -0.386D-08-0.107D-06 0.904D-06-0.216D-06-0.103D-04 0.868D-04
 Coeff:     -0.405D-03 0.128D-02-0.407D-02 0.487D-03 0.108D+00-0.774D+00
 Coeff:      0.167D+01
 Gap=     0.268 Goal=   None    Shift=    0.000
 RMSDP=9.43D-09 MaxDP=1.50D-07 DE= 3.69D-13 OVMax= 1.46D-07

 Cycle  14  Pass 2  IDiag  1:
 SCF Done:  E(RPM7) =  0.419059114876E-01 A.U. after   14 cycles
            NFock= 13  Conv=0.94D-08     -V/T= 1.0009
 KE=-4.502147745398D+01 PE=-1.222861581594D+02 EE= 7.463385380429D+01
 Leave Link  502 at Sat Dec 13 14:55:24 2025, MaxMem=   536870912 cpu:               0.0 elap:               0.7
 (Enter D:\G16W\l801.exe)
 Range of M.O.s used for correlation:     1    29
 NBasis=    29 NAE=    14 NBE=    14 NFC=     0 NFV=     0
 NROrb=     29 NOA=    14 NOB=    14 NVA=    15 NVB=    15
 Leave Link  801 at Sat Dec 13 14:55:25 2025, MaxMem=   536870912 cpu:               0.0 elap:               0.1
 (Enter D:\G16W\l1101.exe)
 Using compressed storage, NAtomX=    12.
 Will process     13 centers per pass.
 R6Disp: Adding PM7 dispersion energy 1st derivatives to the gradient.
 Leave Link 1101 at Sat Dec 13 14:55:25 2025, MaxMem=   536870912 cpu:               0.0 elap:               0.2
 (Enter D:\G16W\l1102.exe)
 Symmetrizing basis deriv contribution to polar:
 IMax=3 JMax=2 DiffMx= 0.00D+00
 Leave Link 1102 at Sat Dec 13 14:55:25 2025, MaxMem=   536870912 cpu:               0.0 elap:               0.1
 (Enter D:\G16W\l1110.exe)
 Forming Gx(P) for the SCF density, NAtomX=    12.
 Integral derivatives from FoFJK, PRISM(SPDF).
 Do as many integral derivatives as possible in FoFJK.
 G2DrvN: MDV=     536811036.
 G2DrvN: will do    13 centers at a time, making    1 passes.
 Calling FoFCou, ICntrl=  3107 FMM=F I1Cent=   0 AccDes= 0.00D+00.
 FoFJK:  IHMeth=43 ICntrl=    3107 DoSepK=F KAlg= 0 I1Cent=           0 FoldK=F
 IRaf=         0 NMat=       1 IRICut=       1 DoRegI=T DoRafI=F ISym2E= 0 IDoP0=3 IntGTp=3.
 FoFCou: FMM=F IPFlag=           0 FMFlag=      100000 FMFlg1=           0
         NFxFlg=           0 DoJE=F BraDBF=F KetDBF=F FulRan=T
         wScrn=  0.000000 ICntrl=      3107 IOpCl=  0 I1Cent=           0 NGrid=           0
         NMat0=    1 NMatS0=      1 NMatT0=    0 NMatD0=    1 NMtDS0=    0 NMtDT0=    0
 Symmetry not used in FoFCou.
 End of G2Drv F.D. properties file   721 does not exist.
 End of G2Drv F.D. properties file   722 does not exist.
 End of G2Drv F.D. properties file   788 does not exist.
 Leave Link 1110 at Sat Dec 13 14:55:25 2025, MaxMem=   536870912 cpu:               0.0 elap:               0.1
 (Enter D:\G16W\l1002.exe)
 Minotr:  Closed shell wavefunction.
          IDoAtm=111111111111
          Direct CPHF calculation.
          Differentiating once with respect to nuclear coordinates.
          Electric field/nuclear overlap derivatives assumed to be zero.
          Requested convergence is 1.0D-08 RMS, and 1.0D-07 maximum.
          NewPWx=T KeepS1=F KeepF1=F KeepIn=T MapXYZ=F SortEE=F KeepMc=T.
 Keep J ints in memory in canonical form, NReq=1851652.
 FoFCou: FMM=F IPFlag=           0 FMFlag=           0 FMFlg1=           0
         NFxFlg=           0 DoJE=F BraDBF=F KetDBF=F FulRan=T
         wScrn=  0.000000 ICntrl=       600 IOpCl=  2 I1Cent=           0 NGrid=           0
         NMat0=    1 NMatS0=     83 NMatT0=    0 NMatD0=    1 NMtDS0=    0 NMtDT0=    0
 Symmetry not used in FoFCou.
 Two-electron integral symmetry not used.
          MDV=     536870912 using IRadAn=       1.
          Solving linear equations separately, MaxMat=       0.
          There are    39 degrees of freedom in the 1st order CPHF.  IDoFFX=5 NUNeed=    39.
 LinEq1:  Iter=  0 NonCon=    36 RMS=2.64D-02 Max=2.45D-01 NDo=    36
 AX will form    39 AO Fock derivatives at one time.
 LinEq1:  Iter=  1 NonCon=    36 RMS=2.50D-03 Max=1.56D-02 NDo=    39
 LinEq1:  Iter=  2 NonCon=    36 RMS=3.37D-04 Max=1.68D-03 NDo=    39
 LinEq1:  Iter=  3 NonCon=    36 RMS=7.32D-05 Max=4.15D-04 NDo=    39
 LinEq1:  Iter=  4 NonCon=    36 RMS=1.36D-05 Max=5.97D-05 NDo=    39
 LinEq1:  Iter=  5 NonCon=    36 RMS=1.76D-06 Max=8.99D-06 NDo=    39
 LinEq1:  Iter=  6 NonCon=    35 RMS=2.50D-07 Max=1.20D-06 NDo=    39
 LinEq1:  Iter=  7 NonCon=    15 RMS=3.80D-08 Max=1.71D-07 NDo=    39
 LinEq1:  Iter=  8 NonCon=     0 RMS=4.67D-09 Max=4.32D-08 NDo=    39
 Linear equations converged to 1.000D-08 1.000D-07 after     8 iterations.
 End of Minotr F.D. properties file   721 does not exist.
 End of Minotr F.D. properties file   722 does not exist.
 End of Minotr F.D. properties file   788 does not exist.
 Leave Link 1002 at Sat Dec 13 14:55:26 2025, MaxMem=   536870912 cpu:               1.0 elap:               0.3
 (Enter D:\G16W\l601.exe)
 Copying SCF densities to generalized density rwf, IOpCl= 0 IROHF=0.

 **********************************************************************

            Population analysis using the SCF density.

 **********************************************************************

 Alpha  occ. eigenvalues --   -1.40470  -0.95133  -0.93527  -0.72735  -0.71014
 Alpha  occ. eigenvalues --   -0.66462  -0.60115  -0.55975  -0.55773  -0.54413
 Alpha  occ. eigenvalues --   -0.49806  -0.29048  -0.28763  -0.28762
 Alpha virt. eigenvalues --   -0.02173   0.05188   0.12059   0.12898   0.13920
 Alpha virt. eigenvalues --    0.15997   0.16838   0.17745   0.17947   0.18047
 Alpha virt. eigenvalues --    4.82617   4.82618   4.82765   4.83606   4.83606
          Condensed to atoms (all electrons):
               1          2          3          4          5          6
     1  C    4.308524   0.000000   0.000000   0.000000   0.000000   0.000000
     2  N    0.000000   5.434274   0.000000   0.000000   0.000000   0.000000
     3  H    0.000000   0.000000   0.824591   0.000000   0.000000   0.000000
     4  H    0.000000   0.000000   0.000000   0.850046   0.000000   0.000000
     5  H    0.000000   0.000000   0.000000   0.000000   0.824590   0.000000
     6  H    0.000000   0.000000   0.000000   0.000000   0.000000   0.731452
     7  H    0.000000   0.000000   0.000000   0.000000   0.000000   0.000000
     8  C    0.000000   0.000000   0.000000   0.000000   0.000000   0.000000
     9  I    0.000000   0.000000   0.000000   0.000000   0.000000   0.000000
    10  H    0.000000   0.000000   0.000000   0.000000   0.000000   0.000000
    11  H    0.000000   0.000000   0.000000   0.000000   0.000000   0.000000
    12  H    0.000000   0.000000   0.000000   0.000000   0.000000   0.000000
               7          8          9         10         11         12
     1  C    0.000000   0.000000   0.000000   0.000000   0.000000   0.000000
     2  N    0.000000   0.000000   0.000000   0.000000   0.000000   0.000000
     3  H    0.000000   0.000000   0.000000   0.000000   0.000000   0.000000
     4  H    0.000000   0.000000   0.000000   0.000000   0.000000   0.000000
     5  H    0.000000   0.000000   0.000000   0.000000   0.000000   0.000000
     6  H    0.000000   0.000000   0.000000   0.000000   0.000000   0.000000
     7  H    0.731452   0.000000   0.000000   0.000000   0.000000   0.000000
     8  C    0.000000   4.049648   0.000000   0.000000   0.000000   0.000000
     9  I    0.000000   0.000000   7.706306   0.000000   0.000000   0.000000
    10  H    0.000000   0.000000   0.000000   0.845412   0.000000   0.000000
    11  H    0.000000   0.000000   0.000000   0.000000   0.848295   0.000000
    12  H    0.000000   0.000000   0.000000   0.000000   0.000000   0.845409
 Mulliken charges:
               1
     1  C   -0.308524
     2  N   -0.434274
     3  H    0.175409
     4  H    0.149954
     5  H    0.175410
     6  H    0.268548
     7  H    0.268548
     8  C   -0.049648
     9  I   -0.706306
    10  H    0.154588
    11  H    0.151705
    12  H    0.154591
 Sum of Mulliken charges =   0.00000
 Mulliken charges with hydrogens summed into heavy atoms:
               1
     1  C    0.192248
     2  N    0.102822
     8  C    0.411235
     9  I   -0.706306
 APT charges:
               1
     1  C   -0.308524
     2  N   -0.434274
     3  H    0.175409
     4  H    0.149954
     5  H    0.175410
     6  H    0.268548
     7  H    0.268548
     8  C   -0.049648
     9  I   -0.706306
    10  H    0.154588
    11  H    0.151705
    12  H    0.154591
 Sum of APT charges =   0.00000
 APT charges with hydrogens summed into heavy atoms:
               1
     1  C    0.192248
     2  N    0.102822
     8  C    0.411235
     9  I   -0.706306
 Charge=              0.0000 electrons
 Dipole moment (field-independent basis, Debye):
    X=             13.6105    Y=              1.4399    Z=             -0.0012  Tot=             13.6865
 N-N= 9.271568772057D+01 E-N=-1.222861581306D+02  KE=-4.502147745398D+01
  Exact polarizability:   0.000   0.000   0.000   0.000   0.000   0.000
 Approx polarizability:  82.312   8.175  17.787  -0.006  -0.001  14.773
 Leave Link  601 at Sat Dec 13 14:55:26 2025, MaxMem=   536870912 cpu:               0.0 elap:               0.1
 (Enter D:\G16W\l701.exe)
 ... and contract with generalized density number  0.
 Compute integral second derivatives.
 R6Disp: Adding PM7 dispersion energy 2nd derivatives to the Hessian.
 Leave Link  701 at Sat Dec 13 14:55:26 2025, MaxMem=   536870912 cpu:               0.0 elap:               0.2
 (Enter D:\G16W\l702.exe)
 L702 exits ... SP integral derivatives will be done elsewhere.
 Leave Link  702 at Sat Dec 13 14:55:26 2025, MaxMem=   536870912 cpu:               0.0 elap:               0.1
 (Enter D:\G16W\l703.exe)
 Integral derivatives from FoFJK, PRISM(SPDF).
 Compute integral second derivatives, UseDBF=F ICtDFT=           0.
 Calling FoFJK, ICntrl=    100147 FMM=F ISym2X=0 I1Cent= 0 IOpClX= 0 NMat=1 NMatS=1 NMatT=0.
 FoFJK:  IHMeth=43 ICntrl=  100147 DoSepK=F KAlg= 0 I1Cent=           0 FoldK=F
 IRaf=         0 NMat=       1 IRICut=       1 DoRegI=T DoRafI=F ISym2E= 0 IDoP0=3 IntGTp=3.
 FoFCou: FMM=F IPFlag=           0 FMFlag=      100000 FMFlg1=         800
         NFxFlg=           0 DoJE=F BraDBF=F KetDBF=F FulRan=T
         wScrn=  0.000000 ICntrl=    100147 IOpCl=  0 I1Cent=           0 NGrid=           0
         NMat0=    1 NMatS0=      1 NMatT0=    0 NMatD0=    1 NMtDS0=    0 NMtDT0=    0
 Symmetry not used in FoFCou.
 Leave Link  703 at Sat Dec 13 14:55:26 2025, MaxMem=   536870912 cpu:               0.0 elap:               0.2
 (Enter D:\G16W\l716.exe)
 Dipole        = 5.35478457D+00 5.66496537D-01-4.68880797D-04
 Polarizability= 0.00000000D+00 0.00000000D+00 0.00000000D+00
                 0.00000000D+00 0.00000000D+00 0.00000000D+00
 -------------------------------------------------------------------
 Center     Atomic                   Forces (Hartrees/Bohr)
 Number     Number              X              Y              Z
 -------------------------------------------------------------------
      1        6           0.000035137   -0.000000491   -0.000000223
      2        7           0.000028899   -0.000008593   -0.000000192
      3        1          -0.000001533   -0.000000526   -0.000000202
      4        1           0.000002419   -0.000004210   -0.000000030
      5        1          -0.000001531   -0.000000291    0.000000473
      6        1           0.000019793    0.000008868    0.000005507
      7        1           0.000019720    0.000009191   -0.000005229
      8        6          -0.000299232   -0.000027784    0.000003265
      9       53          -0.000005554   -0.000005606   -0.000000733
     10        1           0.000067496   -0.000021386   -0.000051070
     11        1           0.000064423    0.000071262   -0.000000808
     12        1           0.000069964   -0.000020435    0.000049241
 -------------------------------------------------------------------
 Cartesian Forces:  Max     0.000299232 RMS     0.000057288
 Z-matrix is all fixed cartesians, so copy forces.
 Force constants in Cartesian coordinates: 
                1             2             3             4             5 
      1  0.419324D+00
      2 -0.194815D-01  0.453055D+00
      3  0.137349D-05 -0.129471D-05  0.421873D+00
      4 -0.110353D+00  0.565387D-01 -0.230941D-05  0.270938D+00
      5  0.830231D-01 -0.188702D+00  0.219961D-05 -0.599032D-01  0.509299D+00
      6 -0.420303D-05  0.397529D-05 -0.813056D-01  0.170526D-04  0.000000D+00
      7 -0.510841D-01 -0.267804D-01  0.404604D-01  0.511195D-02  0.114621D-01
      8 -0.227113D-01 -0.803159D-01  0.652706D-01  0.280385D-03 -0.355447D-01
      9  0.375774D-01  0.744424D-01 -0.151248D+00 -0.302142D-02  0.127778D-01
     10 -0.204848D+00 -0.179345D-01  0.142841D-04 -0.285089D-01  0.173139D-01
     11 -0.272586D-01 -0.393158D-01  0.218668D-05  0.366322D-01 -0.109028D-01
     12  0.150166D-04  0.142250D-05 -0.384520D-01  0.000000D+00  0.000000D+00
     13 -0.510964D-01 -0.267983D-01 -0.404718D-01  0.511417D-02  0.114619D-01
     14 -0.227273D-01 -0.803376D-01 -0.652779D-01  0.276422D-03 -0.355511D-01
     15 -0.375894D-01 -0.744490D-01 -0.151214D+00  0.302035D-02 -0.127743D-01
     16  0.358220D-02  0.138331D-01  0.168020D-01 -0.581427D-01 -0.304097D-01
     17 -0.129358D-02 -0.333685D-01 -0.293264D-01 -0.165756D-01 -0.103332D+00
     18  0.458731D-02 -0.112536D-01 -0.583196D-04 -0.293378D-01 -0.676920D-01
     19  0.357928D-02  0.138322D-01 -0.168045D-01 -0.581315D-01 -0.303926D-01
     20 -0.129022D-02 -0.333626D-01  0.293316D-01 -0.165609D-01 -0.103311D+00
     21 -0.458761D-02  0.112567D-01 -0.614415D-04  0.293253D-01  0.676862D-01
     22  0.254664D-02  0.733506D-02  0.000000D+00  0.813898D-01  0.123752D-01
     23  0.135037D-01  0.237090D-02 -0.101560D-05  0.140321D-01 -0.279899D-01
     24 -0.117499D-05  0.000000D+00  0.122458D-02 -0.919288D-05  0.000000D+00
     25 -0.406018D-02 -0.673556D-03  0.000000D+00 -0.266833D-01 -0.351371D-02
     26 -0.763372D-03 -0.606633D-04  0.000000D+00 -0.405678D-02  0.127764D-02
     27  0.000000D+00  0.000000D+00  0.282908D-03  0.288552D-05  0.000000D+00
     28 -0.220939D-02  0.298770D-03 -0.525946D-03 -0.250938D-01 -0.126441D-01
     29 -0.598998D-04  0.378614D-04 -0.117263D-03 -0.880149D-02 -0.242263D-02
     30 -0.358755D-03  0.193423D-03 -0.515497D-03 -0.858197D-02 -0.331077D-02
     31 -0.317102D-02 -0.468712D-03  0.000000D+00 -0.305527D-01  0.138725D-01
     32 -0.881015D-03 -0.393687D-04  0.000000D+00  0.693930D-02 -0.396802D-03
     33  0.000000D+00  0.000000D+00 -0.100044D-04  0.341698D-05 -0.140930D-05
     34 -0.220988D-02  0.299002D-03  0.526397D-03 -0.250891D-01 -0.126455D-01
     35 -0.599701D-04  0.379678D-04  0.117147D-03 -0.880147D-02 -0.242381D-02
     36  0.359398D-03 -0.193555D-03 -0.515662D-03  0.858412D-02  0.331269D-02
                6             7             8             9            10 
      6  0.452370D+00
      7 -0.113596D-01  0.537653D-01
      8  0.286690D-01  0.220138D-01  0.113923D+00
      9 -0.164797D-02 -0.447971D-01 -0.951416D-01  0.177366D+00
     10  0.112283D-05 -0.121739D-01 -0.688461D-02  0.694312D-02  0.257808D+00
     11 -0.171512D-05 -0.121180D-01  0.300864D-03  0.340663D-02  0.128685D-01
     12  0.349798D-02  0.195495D-01  0.654615D-02 -0.644070D-03 -0.182498D-04
     13  0.113567D-01  0.593334D-02  0.191499D-02  0.402080D-02 -0.121780D-01
     14 -0.286638D-01  0.191517D-02  0.688708D-02  0.521616D-02 -0.688669D-02
     15 -0.164377D-02 -0.402593D-02 -0.522144D-02 -0.250830D-01 -0.694024D-02
     16 -0.526234D-01  0.760431D-03 -0.520359D-03  0.759155D-04  0.195133D-03
     17 -0.747151D-01  0.226804D-03 -0.180847D-02 -0.436923D-03  0.484567D-03
     18 -0.169372D+00 -0.130858D-04 -0.388898D-04  0.941424D-03  0.714794D-03
     19  0.526128D-01 -0.129207D-02  0.267646D-02  0.821977D-03  0.194969D-03
     20  0.747074D-01  0.236286D-02 -0.373172D-02 -0.299001D-03  0.484560D-03
     21 -0.169404D+00  0.477688D-03 -0.285739D-03  0.180187D-03 -0.714841D-03
     22 -0.853627D-05 -0.794557D-03  0.485485D-02 -0.272794D-02 -0.715361D-03
     23 -0.105551D-05  0.214945D-03  0.587787D-03 -0.385590D-03  0.365475D-03
     24 -0.307416D-01 -0.281417D-03  0.247291D-03 -0.174457D-03  0.000000D+00
     25  0.240190D-05  0.472902D-03 -0.118666D-02  0.902934D-03  0.347353D-03
     26  0.000000D+00 -0.926413D-04 -0.303885D-03  0.163007D-03  0.813006D-05
     27  0.195290D-02  0.817672D-04  0.333353D-04 -0.156522D-03  0.000000D+00
     28 -0.151510D-01 -0.100509D-03 -0.217662D-03  0.851074D-05 -0.139057D-04
     29 -0.429882D-02  0.214750D-03  0.373937D-04  0.200846D-03  0.770348D-04
     30 -0.243523D-02 -0.162292D-03  0.299384D-04  0.531214D-04 -0.142159D-04
     31  0.402699D-05 -0.525401D-04 -0.360385D-03  0.194147D-03 -0.933763D-04
     32  0.000000D+00  0.668019D-04 -0.948658D-04  0.361708D-04  0.266322D-04
     33  0.116706D-02 -0.216830D-04  0.238470D-04  0.417982D-04  0.000000D+00
     34  0.151526D-01 -0.546230D-03  0.140481D-03  0.166413D-05 -0.138884D-04
     35  0.430018D-02  0.513900D-03  0.631742D-04  0.200726D-04  0.770461D-04
     36 -0.243795D-02  0.917646D-04 -0.132620D-03  0.371899D-03  0.142154D-04
               11            12            13            14            15 
     11  0.517537D-01
     12 -0.230790D-05  0.352521D-01
     13 -0.121216D-01 -0.195459D-01  0.537792D-01
     14  0.299317D-03 -0.654521D-02  0.220356D-01  0.113953D+00
     15 -0.340488D-02 -0.638402D-03  0.448128D-01  0.951477D-01  0.177322D+00
     16  0.136223D-02  0.549234D-03 -0.129224D-02  0.267634D-02 -0.822171D-03
     17 -0.215964D-03 -0.582465D-03  0.236285D-02 -0.373164D-02  0.299236D-03
     18 -0.652812D-03  0.376169D-03 -0.477847D-03  0.285964D-03  0.180282D-03
     19  0.136222D-02 -0.549424D-03  0.760394D-03 -0.520368D-03 -0.758140D-04
     20 -0.215765D-03  0.582496D-03  0.226869D-03 -0.180841D-02  0.437304D-03
     21  0.652718D-03  0.376185D-03  0.130876D-04  0.393786D-04  0.941343D-03
     22 -0.244827D-02  0.000000D+00 -0.794062D-03  0.485533D-02  0.272730D-02
     23 -0.191570D-02  0.000000D+00  0.214917D-03  0.587840D-03  0.385428D-03
     24  0.000000D+00  0.801536D-04  0.281434D-03 -0.248088D-03 -0.174932D-03
     25  0.589154D-03  0.000000D+00  0.472750D-03 -0.118682D-02 -0.902842D-03
     26  0.189261D-03  0.000000D+00 -0.926836D-04 -0.303920D-03 -0.162974D-03
     27  0.000000D+00 -0.522336D-04 -0.818634D-04 -0.330968D-04 -0.156315D-03
     28  0.209038D-03 -0.772951D-05 -0.545937D-03  0.140336D-03 -0.171414D-05
     29 -0.101312D-03  0.122236D-04  0.513871D-03  0.630706D-04 -0.200157D-04
     30 -0.468260D-04  0.743118D-04 -0.917158D-04  0.132648D-03  0.371840D-03
     31  0.714136D-03  0.000000D+00 -0.525765D-04 -0.360414D-03 -0.194079D-03
     32  0.225874D-03  0.000000D+00  0.667874D-04 -0.948761D-04 -0.361688D-04
     33  0.000000D+00  0.555768D-04  0.216935D-04 -0.237851D-04  0.417994D-04
     34  0.208970D-03  0.770972D-05 -0.100565D-03 -0.217629D-03 -0.836070D-05
     35 -0.101333D-03 -0.122033D-04  0.214839D-03  0.374177D-04 -0.200917D-03
     36  0.467956D-04  0.742966D-04  0.162383D-03 -0.299282D-04  0.531292D-04
               16            17            18            19            20 
     16  0.567291D-01
     17  0.172057D-01  0.130631D+00
     18  0.404301D-01  0.941246D-01  0.197733D+00
     19  0.570744D-02  0.411022D-02 -0.781553D-02  0.567182D-01
     20  0.410959D-02  0.128486D-01 -0.132400D-01  0.171871D-01  0.130603D+00
     21  0.781001D-02  0.132330D-01 -0.306115D-01 -0.404134D-01 -0.941169D-01
     22  0.143738D-02 -0.585141D-02 -0.965123D-02  0.144011D-02 -0.584989D-02
     23 -0.643265D-02 -0.130127D-02 -0.185139D-02 -0.643081D-02 -0.130068D-02
     24 -0.114004D-01 -0.248611D-02  0.207354D-03  0.114011D-01  0.248714D-02
     25 -0.188600D-02  0.686162D-03  0.150663D-02 -0.188634D-02  0.685923D-03
     26 -0.342652D-04 -0.270549D-04  0.161520D-03 -0.343489D-04 -0.270804D-04
     27  0.424416D-03  0.552347D-04 -0.231370D-03 -0.424086D-03 -0.553867D-04
     28 -0.333530D-02 -0.407217D-03  0.399262D-03 -0.166894D-02 -0.853190D-03
     29 -0.465831D-03  0.103221D-03 -0.473160D-04 -0.103685D-02 -0.205609D-03
     30  0.133919D-03 -0.107959D-03  0.586164D-04  0.446030D-03  0.538181D-04
     31 -0.208645D-02 -0.953520D-04 -0.501414D-03 -0.208605D-02 -0.953018D-04
     32 -0.287461D-03  0.408053D-03  0.161864D-03 -0.287580D-03  0.407880D-03
     33 -0.934016D-03 -0.350552D-05  0.223039D-03  0.934344D-03  0.348949D-05
     34 -0.166890D-02 -0.852990D-03  0.158810D-03 -0.333531D-02 -0.407285D-03
     35 -0.103665D-02 -0.205721D-03  0.422156D-04 -0.465657D-03  0.103208D-03
     36 -0.445773D-03 -0.537069D-04  0.552515D-03 -0.133349D-03  0.108087D-03
               21            22            23            24            25 
     21  0.197772D+00
     22  0.965178D-02 -0.110952D+00
     23  0.185248D-02 -0.756022D-01  0.418323D+00
     24  0.203821D-03  0.424308D-04  0.884945D-05  0.427838D+00
     25 -0.150650D-02  0.545687D-01  0.845349D-02 -0.500906D-05  0.435881D-01
     26 -0.161545D-03  0.904810D-02 -0.440753D-02  0.000000D+00  0.527799D-02
     27 -0.231005D-03 -0.705685D-05 -0.103722D-05 -0.575705D-02 -0.257455D-05
     28 -0.158358D-03 -0.652867D-02  0.498725D-02  0.178376D-03 -0.226877D-01
     29 -0.420163D-04  0.478974D-02 -0.863426D-01 -0.781096D-01 -0.754792D-03
     30  0.552629D-03 -0.374723D-03 -0.785219D-01 -0.175626D+00  0.462410D-02
     31  0.501625D-03 -0.150707D-01  0.416933D-01  0.111505D-05 -0.195536D-01
     32 -0.161834D-03  0.416908D-01 -0.212244D+00 -0.192055D-04 -0.762321D-02
     33  0.222625D-03  0.136665D-05 -0.189411D-04 -0.414817D-01  0.148770D-05
     34 -0.398792D-03 -0.652736D-02  0.500063D-02 -0.207278D-03 -0.226924D-01
     35  0.473528D-04  0.480258D-02 -0.863680D-01  0.781217D-01 -0.753693D-03
     36  0.587042D-04  0.346886D-03  0.785340D-01 -0.175598D+00 -0.462090D-02
               26            27            28            29            30 
     26  0.587668D-02
     27  0.000000D+00  0.523767D-02
     28  0.405220D-03  0.672310D-02  0.539835D-01
     29  0.955437D-03 -0.460460D-03  0.442092D-02  0.935825D-01
     30 -0.757638D-03 -0.110835D-02  0.404324D-02  0.953369D-01  0.199707D+00
     31 -0.100717D-01  0.154979D-05  0.402224D-02  0.102491D-02  0.683308D-03
     32 -0.412429D-02  0.000000D+00  0.358453D-02 -0.140468D-01 -0.504407D-02
     33  0.000000D+00  0.132513D-02  0.414985D-02 -0.204172D-01  0.733614D-03
     34  0.406369D-03 -0.671857D-02  0.417836D-02  0.776262D-04 -0.346888D-03
     35  0.955436D-03  0.461130D-03  0.760907D-04  0.833944D-02 -0.795756D-02
     36  0.757956D-03 -0.110589D-02  0.342446D-03  0.796260D-02 -0.218657D-01
               31            32            33            34            35 
     31  0.646754D-01
     32 -0.468817D-01  0.244050D+00
     33 -0.690800D-05  0.224586D-04  0.369423D-01
     34  0.402136D-02  0.358607D-02 -0.414968D-02  0.539838D-01
     35  0.102868D-02 -0.140513D-01  0.204144D-01  0.440431D-02  0.936135D-01
     36 -0.683635D-03  0.504111D-02  0.738752D-03 -0.401759D-02 -0.953535D-01
               36 
     36  0.199674D+00
 Leave Link  716 at Sat Dec 13 14:55:27 2025, MaxMem=   536870912 cpu:               1.0 elap:               0.1
 (Enter D:\G16W\l123.exe)
 IRC-IRC-IRC-IRC-IRC-IRC-IRC-IRC-IRC-IRC-IRC-IRC-IRC-IRC-IRC-IRC-IRC-IRC
          ******** Start new reaction path calculation ********
 Current Structure is TS -> form Hessian eigenvectors.
                            Diagonalizing Hessian.
 Supplied step size of   0.0500 bohr.
    Integration on MW PES will use step size of   0.1590 sqrt(amu)*bohr.
 Point Number:   0          Path Number:   1
 Calculating another point on the path.
 Point Number  1 in FORWARD path direction.
 Using LQA Reaction Path Following.
 IRC-IRC-IRC-IRC-IRC-IRC-IRC-IRC-IRC-IRC-IRC-IRC-IRC-IRC-IRC-IRC-IRC-IRC
 Leave Link  123 at Sat Dec 13 14:55:27 2025, MaxMem=   536870912 cpu:               0.0 elap:               0.1
 (Enter D:\G16W\l202.exe)
                          Input orientation:                          
 ---------------------------------------------------------------------
 Center     Atomic      Atomic             Coordinates (Angstroms)
 Number     Number       Type             X           Y           Z
 ---------------------------------------------------------------------
      1          6           0        4.091310   -0.689975   -0.000266
      2          7           0        3.392498    0.622006   -0.000314
      3          1           0        3.799293   -1.276242    0.890242
      4          1           0        5.187995   -0.589982   -0.000358
      5          1           0        3.799154   -1.276381   -0.890637
      6          1           0        3.630795    1.167431    0.825962
      7          1           0        3.630683    1.167308   -0.826705
      8          6           0        1.527307    0.345178   -0.000169
      9         53           0       -1.099491   -0.037582    0.000091
     10          1           0        1.529130   -0.201162   -0.936745
     11          1           0        1.299697    1.405604   -0.000053
     12          1           0        1.529285   -0.201320    0.936320
 ---------------------------------------------------------------------
                    Distance matrix (angstroms):
                    1          2          3          4          5
     1  C    0.000000
     2  N    1.486483   0.000000
     3  H    1.105435   2.135865   0.000000
     4  H    1.101234   2.166270   1.786789   0.000000
     5  H    1.105436   2.135865   1.780878   1.786790   0.000000
     6  H    2.084390   1.018335   2.450319   2.489212   2.991200
     7  H    2.084389   1.018336   2.991199   2.489204   2.450324
     8  C    2.765077   1.885622   2.929804   3.778248   2.929791
     9  I    5.231637   4.540156   5.130763   6.311705   5.130764
    10  H    2.771407   2.242019   3.106013   3.796748   2.512216
    11  H    3.490638   2.234691   3.772653   4.370495   3.772727
    12  H    2.771271   2.242032   2.512074   3.796654   3.105774
                    6          7          8          9         10
     6  H    0.000000
     7  H    1.652667   0.000000
     8  C    2.404840   2.404838   0.000000
     9  I    4.950730   4.950747   2.654538   0.000000
    10  H    3.065482   2.510248   1.084281   2.795365   0.000000
    11  H    2.484562   2.484680   1.084579   2.799801   1.873961
    12  H    2.510378   3.065496   1.084286   2.795317   1.873066
                   11         12
    11  H    0.000000
    12  H    1.873956   0.000000
 Symmetry turned off by external request.
 Stoichiometry    C2H8IN
 Framework group  C1[X(C2H8IN)]
 Deg. of freedom    30
 Full point group                 C1      NOp   1
 Rotational constants (GHZ):          19.5069627           0.7928702           0.7729550
 Leave Link  202 at Sat Dec 13 14:55:27 2025, MaxMem=   536870912 cpu:               0.0 elap:               0.1
 (Enter D:\G16W\l301.exe)
 Standard basis: VSTO-6G (5D, 7F)
 Ernie: Thresh=  0.10000D-02 Tol=  0.10000D-05 Strict=F.
 EHB=         0.000000000 Number of Hydrogen Bonds=     0
  NNHCO=     0 NNPyr=     0 NCTC=     0               EPep=         0.000000000
    EC=        62.581074261  ECS=         1.706453596   EG=         0.304765896
   EHC=         0.000436255  EAt=       -26.623642591  AtH=         1.429640566
 EPDDG=         0.000000000  ECC=        64.592730008 EAtT=        28.053283157
  EHyb=         0.000000000
    29 basis functions,   180 primitive gaussians,    30 cartesian basis functions
    14 alpha electrons       14 beta electrons
       nuclear repulsion energy        92.6460131650 Hartrees.
 IExCor=    0 DFT=F Ex=HF Corr=None ExCW=0 ScaHFX=  1.000000
 ScaDFX=  1.000000  1.000000  1.000000  1.000000 ScalE2=  1.000000  1.000000
 IRadAn=      5 IRanWt=     -1 IRanGd=            0 ICorTp=0 IEmpDi=251
 Integral buffers will be    131072 words long.
 Regular integral format.
 Two-electron integral symmetry is turned off.
 R6Disp:  PM7 Dispersion energy=       -0.0013233532 Hartrees.
 Nuclear repulsion after empirical dispersion term =       92.6446898118 Hartrees.
 Leave Link  301 at Sat Dec 13 14:55:27 2025, MaxMem=   536870912 cpu:               0.0 elap:               0.2
 (Enter D:\G16W\l302.exe)
 Do NDO integrals.
 NPDir=0 NMtPBC=     1 NCelOv=     1 NCel=       1 NClECP=     1 NCelD=      1
         NCelK=      1 NCelE2=     1 NClLst=     1 CellRange=     0.0.
 One-electron integrals computed using PRISM.
 NBasis=    29 RedAO= F EigKep=  0.00D+00  NBF=    29
 NBsUse=    29 1.00D-04 EigRej=  0.00D+00 NBFU=    29
 Leave Link  302 at Sat Dec 13 14:55:27 2025, MaxMem=   536870912 cpu:               0.0 elap:               0.2
 (Enter D:\G16W\l303.exe)
 DipDrv:  MaxL=1.
 Leave Link  303 at Sat Dec 13 14:55:27 2025, MaxMem=   536870912 cpu:               0.0 elap:               0.1
 (Enter D:\G16W\l401.exe)
 Initial guess from the checkpoint file:  ".\Gau-14216.chk"
 B after Tr=     0.557285    0.011542   -0.000046
         Rot=    1.000000    0.000000    0.000000    0.000017 Ang=   0.00 deg.
 Guess basis will be translated and rotated to current coordinates.
 JPrj=0 DoOrth=T DoCkMO=T.
 Leave Link  401 at Sat Dec 13 14:55:28 2025, MaxMem=   536870912 cpu:               1.0 elap:               0.1
 (Enter D:\G16W\l502.exe)
 Keep J ints in memory in canonical form, NReq=1850439.
 FoFCou: FMM=F IPFlag=           0 FMFlag=           0 FMFlg1=           0
         NFxFlg=           0 DoJE=F BraDBF=F KetDBF=F FulRan=T
         wScrn=  0.000000 ICntrl=       600 IOpCl=  2 I1Cent=           0 NGrid=           0
         NMat0=    1 NMatS0=     83 NMatT0=    0 NMatD0=    1 NMtDS0=    0 NMtDT0=    0
 Symmetry not used in FoFCou.
 Two-electron integral symmetry not used.
 Closed shell SCF:
 Using DIIS extrapolation, IDIIS=  1040.
 Overlap will be assumed to be unity.
 NGot=   536870912 LenX=   536805876 LenY=   536804535
 Requested convergence on RMS density matrix=1.00D-08 within 128 cycles.
 Requested convergence on MAX density matrix=1.00D-06.
 Requested convergence on             energy=1.00D-06.
 No special actions if energy rises.

 Cycle   1  Pass 1  IDiag  1:
 E= 0.423486595273062E-01
 DIIS: error= 2.73D-03 at cycle   1 NSaved=   1.
 NSaved= 1 IEnMin= 1 EnMin= 0.423486595273062E-01 IErMin= 1 ErrMin= 2.73D-03
 ErrMax= 2.73D-03  0.00D+00 EMaxC= 1.00D-01 BMatC= 1.22D-04 BMatP= 1.22D-04
 IDIUse=3 WtCom= 9.73D-01 WtEn= 2.73D-02
 Coeff-Com:  0.100D+01
 Coeff-En:   0.100D+01
 Coeff:      0.100D+01
 GapD=    2.000 DampG=2.000 DampE=1.000 DampFc=2.0000 IDamp=-1.
 RMSDP=9.35D-04 MaxDP=8.87D-03              OVMax= 0.00D+00

 Cycle   2  Pass 1  IDiag  3:
 E= 0.418452032916434E-01 Delta-E=       -0.000503456236 Rises=F Damp=F
 DIIS: error= 1.06D-03 at cycle   2 NSaved=   2.
 NSaved= 2 IEnMin= 2 EnMin= 0.418452032916434E-01 IErMin= 2 ErrMin= 1.06D-03
 ErrMax= 1.06D-03  0.00D+00 EMaxC= 1.00D-01 BMatC= 1.82D-05 BMatP= 1.22D-04
 IDIUse=3 WtCom= 9.89D-01 WtEn= 1.06D-02
 Coeff-Com: -0.447D+00 0.145D+01
 Coeff-En:   0.000D+00 0.100D+01
 Coeff:     -0.442D+00 0.144D+01
 Gap=     0.269 Goal=   None    Shift=    0.000
 RMSDP=5.87D-04 MaxDP=5.77D-03 DE=-5.03D-04 OVMax= 7.99D-03

 Cycle   3  Pass 1  IDiag  3:
 E= 0.417360372745605E-01 Delta-E=       -0.000109166017 Rises=F Damp=F
 DIIS: error= 1.55D-04 at cycle   3 NSaved=   3.
 NSaved= 3 IEnMin= 3 EnMin= 0.417360372745605E-01 IErMin= 3 ErrMin= 1.55D-04
 ErrMax= 1.55D-04  0.00D+00 EMaxC= 1.00D-01 BMatC= 9.76D-07 BMatP= 1.82D-05
 IDIUse=3 WtCom= 9.98D-01 WtEn= 1.55D-03
 Coeff-Com:  0.403D-01-0.281D+00 0.124D+01
 Coeff-En:   0.000D+00 0.000D+00 0.100D+01
 Coeff:      0.402D-01-0.281D+00 0.124D+01
 Gap=     0.270 Goal=   None    Shift=    0.000
 RMSDP=1.55D-04 MaxDP=1.59D-03 DE=-1.09D-04 OVMax= 2.19D-03

 Cycle   4  Pass 1  IDiag  3:
 E= 0.417289238857421E-01 Delta-E=       -0.000007113389 Rises=F Damp=F
 DIIS: error= 5.54D-05 at cycle   4 NSaved=   4.
 NSaved= 4 IEnMin= 4 EnMin= 0.417289238857421E-01 IErMin= 4 ErrMin= 5.54D-05
 ErrMax= 5.54D-05  0.00D+00 EMaxC= 1.00D-01 BMatC= 8.57D-08 BMatP= 9.76D-07
 IDIUse=1 WtCom= 1.00D+00 WtEn= 0.00D+00
 Coeff-Com:  0.185D-01-0.344D-01-0.312D+00 0.133D+01
 Coeff:      0.185D-01-0.344D-01-0.312D+00 0.133D+01
 Gap=     0.270 Goal=   None    Shift=    0.000
 RMSDP=5.30D-05 MaxDP=5.64D-04 DE=-7.11D-06 OVMax= 8.02D-04

 Cycle   5  Pass 1  IDiag  3:
 E= 0.417282747681327E-01 Delta-E=       -0.000000649118 Rises=F Damp=F
 DIIS: error= 1.18D-05 at cycle   5 NSaved=   5.
 NSaved= 5 IEnMin= 5 EnMin= 0.417282747681327E-01 IErMin= 5 ErrMin= 1.18D-05
 ErrMax= 1.18D-05  0.00D+00 EMaxC= 1.00D-01 BMatC= 4.90D-09 BMatP= 8.57D-08
 IDIUse=1 WtCom= 1.00D+00 WtEn= 0.00D+00
 Coeff-Com: -0.103D-01 0.364D-01 0.214D-01-0.466D+00 0.142D+01
 Coeff:     -0.103D-01 0.364D-01 0.214D-01-0.466D+00 0.142D+01
 Gap=     0.270 Goal=   None    Shift=    0.000
 RMSDP=1.10D-05 MaxDP=1.19D-04 DE=-6.49D-07 OVMax= 1.67D-04

 Cycle   6  Pass 1  IDiag  3:
 E= 0.417282447613729E-01 Delta-E=       -0.000000030007 Rises=F Damp=F
 DIIS: error= 3.21D-06 at cycle   6 NSaved=   6.
 NSaved= 6 IEnMin= 6 EnMin= 0.417282447613729E-01 IErMin= 6 ErrMin= 3.21D-06
 ErrMax= 3.21D-06  0.00D+00 EMaxC= 1.00D-01 BMatC= 2.19D-10 BMatP= 4.90D-09
 IDIUse=1 WtCom= 1.00D+00 WtEn= 0.00D+00
 Coeff-Com:  0.461D-02-0.176D-01 0.269D-02 0.178D+00-0.691D+00 0.152D+01
 Coeff:      0.461D-02-0.176D-01 0.269D-02 0.178D+00-0.691D+00 0.152D+01
 Gap=     0.270 Goal=   None    Shift=    0.000
 RMSDP=1.90D-06 MaxDP=1.79D-05 DE=-3.00D-08 OVMax= 1.88D-05

 Cycle   7  Pass 1  IDiag  3:
 E= 0.417282435549851E-01 Delta-E=       -0.000000001206 Rises=F Damp=F
 DIIS: error= 7.47D-07 at cycle   7 NSaved=   7.
 NSaved= 7 IEnMin= 7 EnMin= 0.417282435549851E-01 IErMin= 7 ErrMin= 7.47D-07
 ErrMax= 7.47D-07  0.00D+00 EMaxC= 1.00D-01 BMatC= 1.13D-11 BMatP= 2.19D-10
 IDIUse=1 WtCom= 1.00D+00 WtEn= 0.00D+00
 Coeff-Com: -0.631D-03 0.269D-02-0.226D-02-0.196D-01 0.106D+00-0.439D+00
 Coeff-Com:  0.135D+01
 Coeff:     -0.631D-03 0.269D-02-0.226D-02-0.196D-01 0.106D+00-0.439D+00
 Coeff:      0.135D+01
 Gap=     0.270 Goal=   None    Shift=    0.000
 RMSDP=4.00D-07 MaxDP=4.52D-06 DE=-1.21D-09 OVMax= 3.38D-06

 Cycle   8  Pass 1  IDiag  3:
 E= 0.417282434930826E-01 Delta-E=       -0.000000000062 Rises=F Damp=F
 DIIS: error= 1.41D-07 at cycle   8 NSaved=   8.
 NSaved= 8 IEnMin= 8 EnMin= 0.417282434930826E-01 IErMin= 8 ErrMin= 1.41D-07
 ErrMax= 1.41D-07  0.00D+00 EMaxC= 1.00D-01 BMatC= 7.36D-13 BMatP= 1.13D-11
 IDIUse=1 WtCom= 1.00D+00 WtEn= 0.00D+00
 Coeff-Com:  0.134D-03-0.661D-03 0.869D-03 0.370D-02-0.281D-01 0.157D+00
 Coeff-Com: -0.681D+00 0.155D+01
 Coeff:      0.134D-03-0.661D-03 0.869D-03 0.370D-02-0.281D-01 0.157D+00
 Coeff:     -0.681D+00 0.155D+01
 Gap=     0.270 Goal=   None    Shift=    0.000
 RMSDP=1.16D-07 MaxDP=9.78D-07 DE=-6.19D-11 OVMax= 9.41D-07

 Cycle   9  Pass 1  IDiag  3:
 E= 0.417282434888762E-01 Delta-E=       -0.000000000004 Rises=F Damp=F
 DIIS: error= 2.97D-08 at cycle   9 NSaved=   9.
 NSaved= 9 IEnMin= 9 EnMin= 0.417282434888762E-01 IErMin= 9 ErrMin= 2.97D-08
 ErrMax= 2.97D-08  0.00D+00 EMaxC= 1.00D-01 BMatC= 3.01D-14 BMatP= 7.36D-13
 IDIUse=1 WtCom= 1.00D+00 WtEn= 0.00D+00
 Coeff-Com: -0.734D-05 0.591D-04-0.107D-03-0.244D-03 0.373D-02-0.308D-01
 Coeff-Com:  0.167D+00-0.540D+00 0.140D+01
 Coeff:     -0.734D-05 0.591D-04-0.107D-03-0.244D-03 0.373D-02-0.308D-01
 Coeff:      0.167D+00-0.540D+00 0.140D+01
 Gap=     0.270 Goal=   None    Shift=    0.000
 RMSDP=2.41D-08 MaxDP=2.12D-07 DE=-4.21D-12 OVMax= 2.10D-07

 Cycle  10  Pass 1  IDiag  3:
 E= 0.417282434886772E-01 Delta-E=        0.000000000000 Rises=F Damp=F
 DIIS: error= 4.63D-09 at cycle  10 NSaved=  10.
 NSaved=10 IEnMin=10 EnMin= 0.417282434886772E-01 IErMin=10 ErrMin= 4.63D-09
 ErrMax= 4.63D-09  0.00D+00 EMaxC= 1.00D-01 BMatC= 7.40D-16 BMatP= 3.01D-14
 IDIUse=1 WtCom= 1.00D+00 WtEn= 0.00D+00
 Coeff-Com: -0.133D-06-0.206D-05 0.117D-04-0.226D-04-0.152D-03 0.210D-02
 Coeff-Com: -0.135D-01 0.608D-01-0.292D+00 0.124D+01
 Coeff:     -0.133D-06-0.206D-05 0.117D-04-0.226D-04-0.152D-03 0.210D-02
 Coeff:     -0.135D-01 0.608D-01-0.292D+00 0.124D+01
 Gap=     0.270 Goal=   None    Shift=    0.000
 RMSDP=3.82D-09 MaxDP=3.29D-08 DE=-1.99D-13 OVMax= 3.90D-08

 Cycle  11  Pass 2  IDiag  1:
 SCF Done:  E(RPM7) =  0.417282434887E-01 A.U. after   11 cycles
            NFock= 10  Conv=0.38D-08     -V/T= 1.0009
 KE=-4.500250967854D+01 PE=-1.222287975320D+02 EE= 7.462834564228D+01
 Leave Link  502 at Sat Dec 13 14:55:28 2025, MaxMem=   536870912 cpu:               0.0 elap:               0.6
 (Enter D:\G16W\l801.exe)
 Range of M.O.s used for correlation:     1    29
 NBasis=    29 NAE=    14 NBE=    14 NFC=     0 NFV=     0
 NROrb=     29 NOA=    14 NOB=    14 NVA=    15 NVB=    15
 Leave Link  801 at Sat Dec 13 14:55:28 2025, MaxMem=   536870912 cpu:               0.0 elap:               0.1
 (Enter D:\G16W\l1101.exe)
 Leave Link 1101 at Sat Dec 13 14:55:28 2025, MaxMem=   536870912 cpu:               0.0 elap:               0.1
 (Enter D:\G16W\l1102.exe)
 Symmetrizing basis deriv contribution to polar:
 IMax=3 JMax=2 DiffMx= 0.00D+00
 Leave Link 1102 at Sat Dec 13 14:55:29 2025, MaxMem=   536870912 cpu:               1.0 elap:               0.1
 (Enter D:\G16W\l1110.exe)
 Leave Link 1110 at Sat Dec 13 14:55:29 2025, MaxMem=   536870912 cpu:               0.0 elap:               0.1
 (Enter D:\G16W\l1002.exe)
 Minotr:  Closed shell wavefunction.
 Leave Link 1002 at Sat Dec 13 14:55:29 2025, MaxMem=   536870912 cpu:               0.0 elap:               0.1
 (Enter D:\G16W\l701.exe)
 ... and contract with generalized density number  0.
 Compute integral first derivatives.
 R6Disp: Adding PM7 dispersion energy 1st derivatives to the gradient.
 Leave Link  701 at Sat Dec 13 14:55:29 2025, MaxMem=   536870912 cpu:               0.0 elap:               0.2
 (Enter D:\G16W\l702.exe)
 L702 exits ... SP integral derivatives will be done elsewhere.
 Leave Link  702 at Sat Dec 13 14:55:29 2025, MaxMem=   536870912 cpu:               0.0 elap:               0.1
 (Enter D:\G16W\l703.exe)
 Integral derivatives from FoFJK, PRISM(SPDF).
 Compute integral first derivatives, UseDBF=F ICtDFT=           0.
 Calling FoFJK, ICntrl=      2147 FMM=F ISym2X=0 I1Cent= 0 IOpClX= 0 NMat=1 NMatS=1 NMatT=0.
 FoFJK:  IHMeth=43 ICntrl=    2147 DoSepK=F KAlg= 0 I1Cent=           0 FoldK=F
 IRaf=         0 NMat=       1 IRICut=       1 DoRegI=T DoRafI=F ISym2E= 0 IDoP0=3 IntGTp=3.
 FoFCou: FMM=F IPFlag=           0 FMFlag=      100000 FMFlg1=         800
         NFxFlg=           0 DoJE=F BraDBF=F KetDBF=F FulRan=T
         wScrn=  0.000000 ICntrl=      2147 IOpCl=  0 I1Cent=           0 NGrid=           0
         NMat0=    1 NMatS0=      1 NMatT0=    0 NMatD0=    1 NMtDS0=    0 NMtDT0=    0
 Symmetry not used in FoFCou.
 Leave Link  703 at Sat Dec 13 14:55:29 2025, MaxMem=   536870912 cpu:               0.0 elap:               0.1
 (Enter D:\G16W\l716.exe)
 Dipole        = 5.10456690D+00 5.38681809D-01-4.46979611D-04
 Polarizability= 0.00000000D+00 0.00000000D+00 0.00000000D+00
                 0.00000000D+00 0.00000000D+00 0.00000000D+00
 -------------------------------------------------------------------
 Center     Atomic                   Forces (Hartrees/Bohr)
 Number     Number              X              Y              Z
 -------------------------------------------------------------------
      1        6           0.000637544   -0.000057358   -0.000000253
      2        7           0.002420469    0.000403020   -0.000000394
      3        1          -0.000016114    0.000033999   -0.000001405
      4        1           0.000056941   -0.000130067   -0.000000024
      5        1          -0.000016112    0.000034235    0.000001674
      6        1           0.000208053    0.000023817    0.000001962
      7        1           0.000207973    0.000024135   -0.000001719
      8        6          -0.006831813   -0.000854410    0.000003856
      9       53           0.002969447    0.000443209   -0.000001073
     10        1           0.000117294    0.000036884    0.000019901
     11        1           0.000126558    0.000004702   -0.000000806
     12        1           0.000119760    0.000037834   -0.000021720
 -------------------------------------------------------------------
 Cartesian Forces:  Max     0.006831813 RMS     0.001322950
 Z-matrix is all fixed cartesians, so copy forces.
 Leave Link  716 at Sat Dec 13 14:55:29 2025, MaxMem=   536870912 cpu:               0.0 elap:               0.1
 (Enter D:\G16W\l123.exe)
 IRC-IRC-IRC-IRC-IRC-IRC-IRC-IRC-IRC-IRC-IRC-IRC-IRC-IRC-IRC-IRC-IRC-IRC
 Pt  1 Step number   1 out of a maximum of  20
 Using modified Bulirsch-Stoer corrector integration.
   Using distance weighted interpolants to fit PES.
 PreDWI: IReCr0= 2 IReCr1= 1 IReCr2= 1 IReCr3= 1
 Modified Bulirsch-Stoer Extrapolation Cycles:
    EPS =    0.000010000000000
    Cycle     1 NS=    48
      PEZero:  N= 2 I= 1 D=  4.14D-04 Err=  1.14D-03
    Cycle     2 NS=    64 Truncation Error =  0.001138756
      PEZero:  N= 3 I= 2 D=  4.14D-04 Err=  7.59D-04
      PEZero:  N= 3 I= 1 D=  8.28D-04 Err=  1.21D-07
    Cycle     3 NS=    96 Truncation Error =  0.000000121
 BS completed in    3 cycles and     208 integration steps.
 Maximum DWI energy   std dev =  0.000000131 at pt    28
 Maximum DWI gradient std dev =  0.042032258 at pt     5
 SUMMARY OF CORRECTOR INTEGRATION:
   Predictor End Point Energy =     0.041728
   Old End Point Energy       =     0.041728
   Corrected End Point Energy =     0.041728
   Predictor End-Start Dist.  =     0.159041
   Old End-Start Dist.        =     0.159041
   New End-Start Dist.        =     0.158994
   New End-Old End Dist.      =     0.002217
 CORRECTOR INTEGRATION CONVERGENCE:
   Recorrection delta-x convergence threshold:    0.010000
   Delta-x Convergence Met
 Point Number:   1          Path Number:   1
                    CURRENT STRUCTURE
                Cartesian Coordinates (Ang):                
 ---------------------------------------------------------------------
 Center     Atomic                     Coordinates (Angstroms)
 Number     Number                        X           Y           Z
 ---------------------------------------------------------------------
      1          6                    4.091336   -0.689979   -0.000266
      2          7                    3.392444    0.622004   -0.000314
      3          1                    3.799310   -1.276269    0.890228
      4          1                    5.187999   -0.589939   -0.000359
      5          1                    3.799170   -1.276407   -0.890622
      6          1                    3.631048    1.167457    0.825960
      7          1                    3.630936    1.167338   -0.826699
      8          6                    1.527314    0.345182   -0.000167
      9         53                   -1.099507   -0.037585    0.000091
     10          1                    1.529691   -0.201071   -0.936702
     11          1                    1.300381    1.405676   -0.000061
     12          1                    1.529869   -0.201223    0.936279
 ---------------------------------------------------------------------
   CHANGE IN THE REACTION COORDINATE =    0.15899
   NET REACTION COORDINATE UP TO THIS POINT =    0.15899
  # OF POINTS ALONG THE PATH =   1
  # OF STEPS =   1

 Calculating another point on the path.
 Point Number  2 in FORWARD path direction.
 Using LQA Reaction Path Following.
   LQA: T_Est iteration completed in    3 iterations.
 IRC-IRC-IRC-IRC-IRC-IRC-IRC-IRC-IRC-IRC-IRC-IRC-IRC-IRC-IRC-IRC-IRC-IRC
 Leave Link  123 at Sat Dec 13 14:55:30 2025, MaxMem=   536870912 cpu:               1.0 elap:               0.1
 (Enter D:\G16W\l202.exe)
                          Input orientation:                          
 ---------------------------------------------------------------------
 Center     Atomic      Atomic             Coordinates (Angstroms)
 Number     Number       Type             X           Y           Z
 ---------------------------------------------------------------------
      1          6           0        4.093345   -0.690161   -0.000267
      2          7           0        3.399717    0.623232   -0.000315
      3          1           0        3.798787   -1.274815    0.890162
      4          1           0        5.190398   -0.595060   -0.000360
      5          1           0        3.798645   -1.274954   -0.890557
      6          1           0        3.637965    1.167689    0.825219
      7          1           0        3.637854    1.167571   -0.825958
      8          6           0        1.505114    0.342421   -0.000164
      9         53           0       -1.098560   -0.037443    0.000091
     10          1           0        1.531470   -0.200753   -0.937331
     11          1           0        1.301753    1.406867   -0.000063
     12          1           0        1.531650   -0.200899    0.936915
 ---------------------------------------------------------------------
                    Distance matrix (angstroms):
                    1          2          3          4          5
     1  C    0.000000
     2  N    1.485302   0.000000
     3  H    1.105191   2.134195   0.000000
     4  H    1.101167   2.165819   1.786527   0.000000
     5  H    1.105191   2.134194   1.780719   1.786528   0.000000
     6  H    2.083363   1.017202   2.448654   2.489761   2.989349
     7  H    2.083364   1.017202   2.989351   2.489753   2.448664
     8  C    2.786605   1.915301   2.944328   3.802656   2.944314
     9  I    5.232773   4.546536   5.129066   6.313630   5.129065
    10  H    2.771428   2.246620   3.103879   3.797519   2.509219
    11  H    3.491491   2.239540   3.770822   4.373702   3.770890
    12  H    2.771275   2.246612   2.509061   3.797405   3.103629
                    6          7          8          9         10
     6  H    0.000000
     7  H    1.651177   0.000000
     8  C    2.431332   2.431335   0.000000
     9  I    4.956595   4.956614   2.631238   0.000000
    10  H    3.068637   2.514273   1.083519   2.796871   0.000000
    11  H    2.489213   2.489323   1.083698   2.801345   1.875016
    12  H    2.514372   3.068635   1.083521   2.796848   1.874245
                   11         12
    11  H    0.000000
    12  H    1.875018   0.000000
 Symmetry turned off by external request.
 Stoichiometry    C2H8IN
 Framework group  C1[X(C2H8IN)]
 Deg. of freedom    30
 Full point group                 C1      NOp   1
 Rotational constants (GHZ):          19.5040449           0.7929197           0.7729962
 Leave Link  202 at Sat Dec 13 14:55:30 2025, MaxMem=   536870912 cpu:               0.0 elap:               0.1
 (Enter D:\G16W\l301.exe)
 Standard basis: VSTO-6G (5D, 7F)
 Ernie: Thresh=  0.10000D-02 Tol=  0.10000D-05 Strict=F.
 EHB=         0.000000000 Number of Hydrogen Bonds=     0
  NNHCO=     0 NNPyr=     0 NCTC=     0               EPep=         0.000000000
    EC=        62.512640760  ECS=         1.707299754   EG=         0.303127435
   EHC=         0.000440606  EAt=       -26.623642591  AtH=         1.429640566
 EPDDG=         0.000000000  ECC=        64.523508555 EAtT=        28.053283157
  EHyb=         0.000000000
    29 basis functions,   180 primitive gaussians,    30 cartesian basis functions
    14 alpha electrons       14 beta electrons
       nuclear repulsion energy        92.5767917117 Hartrees.
 IExCor=    0 DFT=F Ex=HF Corr=None ExCW=0 ScaHFX=  1.000000
 ScaDFX=  1.000000  1.000000  1.000000  1.000000 ScalE2=  1.000000  1.000000
 IRadAn=      5 IRanWt=     -1 IRanGd=            0 ICorTp=0 IEmpDi=251
 Integral buffers will be    131072 words long.
 Regular integral format.
 Two-electron integral symmetry is turned off.
 R6Disp:  PM7 Dispersion energy=       -0.0013250985 Hartrees.
 Nuclear repulsion after empirical dispersion term =       92.5754666132 Hartrees.
 Leave Link  301 at Sat Dec 13 14:55:30 2025, MaxMem=   536870912 cpu:               0.0 elap:               0.2
 (Enter D:\G16W\l302.exe)
 Do NDO integrals.
 NPDir=0 NMtPBC=     1 NCelOv=     1 NCel=       1 NClECP=     1 NCelD=      1
         NCelK=      1 NCelE2=     1 NClLst=     1 CellRange=     0.0.
 One-electron integrals computed using PRISM.
 NBasis=    29 RedAO= F EigKep=  0.00D+00  NBF=    29
 NBsUse=    29 1.00D-04 EigRej=  0.00D+00 NBFU=    29
 Leave Link  302 at Sat Dec 13 14:55:30 2025, MaxMem=   536870912 cpu:               0.0 elap:               0.1
 (Enter D:\G16W\l303.exe)
 DipDrv:  MaxL=1.
 Leave Link  303 at Sat Dec 13 14:55:30 2025, MaxMem=   536870912 cpu:               0.0 elap:               0.1
 (Enter D:\G16W\l401.exe)
 Initial guess from the checkpoint file:  ".\Gau-14216.chk"
 B after Tr=     0.000033   -0.000010    0.000000
         Rot=    1.000000    0.000000    0.000000    0.000018 Ang=   0.00 deg.
 Guess basis will be translated and rotated to current coordinates.
 JPrj=0 DoOrth=T DoCkMO=T.
 Leave Link  401 at Sat Dec 13 14:55:30 2025, MaxMem=   536870912 cpu:               0.0 elap:               0.1
 (Enter D:\G16W\l502.exe)
 Keep J ints in memory in canonical form, NReq=1850439.
 FoFCou: FMM=F IPFlag=           0 FMFlag=           0 FMFlg1=           0
         NFxFlg=           0 DoJE=F BraDBF=F KetDBF=F FulRan=T
         wScrn=  0.000000 ICntrl=       600 IOpCl=  2 I1Cent=           0 NGrid=           0
         NMat0=    1 NMatS0=     83 NMatT0=    0 NMatD0=    1 NMtDS0=    0 NMtDT0=    0
 Symmetry not used in FoFCou.
 Two-electron integral symmetry not used.
 Closed shell SCF:
 Using DIIS extrapolation, IDIIS=  1040.
 Overlap will be assumed to be unity.
 NGot=   536870912 LenX=   536805876 LenY=   536804535
 Requested convergence on RMS density matrix=1.00D-08 within 128 cycles.
 Requested convergence on MAX density matrix=1.00D-06.
 Requested convergence on             energy=1.00D-06.
 No special actions if energy rises.

 Cycle   1  Pass 1  IDiag  1:
 E= 0.418498652905157E-01
 DIIS: error= 2.76D-03 at cycle   1 NSaved=   1.
 NSaved= 1 IEnMin= 1 EnMin= 0.418498652905157E-01 IErMin= 1 ErrMin= 2.76D-03
 ErrMax= 2.76D-03  0.00D+00 EMaxC= 1.00D-01 BMatC= 1.21D-04 BMatP= 1.21D-04
 IDIUse=3 WtCom= 9.72D-01 WtEn= 2.76D-02
 Coeff-Com:  0.100D+01
 Coeff-En:   0.100D+01
 Coeff:      0.100D+01
 GapD=    2.000 DampG=2.000 DampE=1.000 DampFc=2.0000 IDamp=-1.
 RMSDP=9.40D-04 MaxDP=8.44D-03              OVMax= 0.00D+00

 Cycle   2  Pass 1  IDiag  3:
 E= 0.413418457945056E-01 Delta-E=       -0.000508019496 Rises=F Damp=F
 DIIS: error= 1.07D-03 at cycle   2 NSaved=   2.
 NSaved= 2 IEnMin= 2 EnMin= 0.413418457945056E-01 IErMin= 2 ErrMin= 1.07D-03
 ErrMax= 1.07D-03  0.00D+00 EMaxC= 1.00D-01 BMatC= 1.85D-05 BMatP= 1.21D-04
 IDIUse=3 WtCom= 9.89D-01 WtEn= 1.07D-02
 Coeff-Com: -0.459D+00 0.146D+01
 Coeff-En:   0.000D+00 0.100D+01
 Coeff:     -0.455D+00 0.145D+01
 Gap=     0.274 Goal=   None    Shift=    0.000
 RMSDP=5.97D-04 MaxDP=5.52D-03 DE=-5.08D-04 OVMax= 8.25D-03

 Cycle   3  Pass 1  IDiag  3:
 E= 0.412304152837066E-01 Delta-E=       -0.000111430511 Rises=F Damp=F
 DIIS: error= 1.50D-04 at cycle   3 NSaved=   3.
 NSaved= 3 IEnMin= 3 EnMin= 0.412304152837066E-01 IErMin= 3 ErrMin= 1.50D-04
 ErrMax= 1.50D-04  0.00D+00 EMaxC= 1.00D-01 BMatC= 9.46D-07 BMatP= 1.85D-05
 IDIUse=3 WtCom= 9.99D-01 WtEn= 1.50D-03
 Coeff-Com:  0.337D-01-0.254D+00 0.122D+01
 Coeff-En:   0.000D+00 0.000D+00 0.100D+01
 Coeff:      0.336D-01-0.253D+00 0.122D+01
 Gap=     0.274 Goal=   None    Shift=    0.000
 RMSDP=1.50D-04 MaxDP=1.49D-03 DE=-1.11D-04 OVMax= 2.17D-03

 Cycle   4  Pass 1  IDiag  3:
 E= 0.412235923822095E-01 Delta-E=       -0.000006822901 Rises=F Damp=F
 DIIS: error= 5.49D-05 at cycle   4 NSaved=   4.
 NSaved= 4 IEnMin= 4 EnMin= 0.412235923822095E-01 IErMin= 4 ErrMin= 5.49D-05
 ErrMax= 5.49D-05  0.00D+00 EMaxC= 1.00D-01 BMatC= 8.49D-08 BMatP= 9.46D-07
 IDIUse=1 WtCom= 1.00D+00 WtEn= 0.00D+00
 Coeff-Com:  0.201D-01-0.394D-01-0.313D+00 0.133D+01
 Coeff:      0.201D-01-0.394D-01-0.313D+00 0.133D+01
 Gap=     0.275 Goal=   None    Shift=    0.000
 RMSDP=5.28D-05 MaxDP=5.82D-04 DE=-6.82D-06 OVMax= 8.12D-04

 Cycle   5  Pass 1  IDiag  3:
 E= 0.412229483851547E-01 Delta-E=       -0.000000643997 Rises=F Damp=F
 DIIS: error= 1.18D-05 at cycle   5 NSaved=   5.
 NSaved= 5 IEnMin= 5 EnMin= 0.412229483851547E-01 IErMin= 5 ErrMin= 1.18D-05
 ErrMax= 1.18D-05  0.00D+00 EMaxC= 1.00D-01 BMatC= 4.66D-09 BMatP= 8.49D-08
 IDIUse=1 WtCom= 1.00D+00 WtEn= 0.00D+00
 Coeff-Com: -0.104D-01 0.359D-01 0.233D-01-0.460D+00 0.141D+01
 Coeff:     -0.104D-01 0.359D-01 0.233D-01-0.460D+00 0.141D+01
 Gap=     0.275 Goal=   None    Shift=    0.000
 RMSDP=1.07D-05 MaxDP=1.21D-04 DE=-6.44D-07 OVMax= 1.64D-04

 Cycle   6  Pass 1  IDiag  3:
 E= 0.412229199419869E-01 Delta-E=       -0.000000028443 Rises=F Damp=F
 DIIS: error= 3.19D-06 at cycle   6 NSaved=   6.
 NSaved= 6 IEnMin= 6 EnMin= 0.412229199419869E-01 IErMin= 6 ErrMin= 3.19D-06
 ErrMax= 3.19D-06  0.00D+00 EMaxC= 1.00D-01 BMatC= 2.16D-10 BMatP= 4.66D-09
 IDIUse=1 WtCom= 1.00D+00 WtEn= 0.00D+00
 Coeff-Com:  0.476D-02-0.176D-01 0.499D-03 0.186D+00-0.718D+00 0.154D+01
 Coeff:      0.476D-02-0.176D-01 0.499D-03 0.186D+00-0.718D+00 0.154D+01
 Gap=     0.275 Goal=   None    Shift=    0.000
 RMSDP=1.89D-06 MaxDP=1.79D-05 DE=-2.84D-08 OVMax= 1.76D-05

 Cycle   7  Pass 1  IDiag  3:
 E= 0.412229187389528E-01 Delta-E=       -0.000000001203 Rises=F Damp=F
 DIIS: error= 7.18D-07 at cycle   7 NSaved=   7.
 NSaved= 7 IEnMin= 7 EnMin= 0.412229187389528E-01 IErMin= 7 ErrMin= 7.18D-07
 ErrMax= 7.18D-07  0.00D+00 EMaxC= 1.00D-01 BMatC= 1.12D-11 BMatP= 2.16D-10
 IDIUse=1 WtCom= 1.00D+00 WtEn= 0.00D+00
 Coeff-Com: -0.668D-03 0.270D-02-0.150D-02-0.230D-01 0.115D+00-0.446D+00
 Coeff-Com:  0.135D+01
 Coeff:     -0.668D-03 0.270D-02-0.150D-02-0.230D-01 0.115D+00-0.446D+00
 Coeff:      0.135D+01
 Gap=     0.275 Goal=   None    Shift=    0.000
 RMSDP=3.97D-07 MaxDP=4.39D-06 DE=-1.20D-09 OVMax= 3.43D-06

 Cycle   8  Pass 1  IDiag  3:
 E= 0.412229186780735E-01 Delta-E=       -0.000000000061 Rises=F Damp=F
 DIIS: error= 1.34D-07 at cycle   8 NSaved=   8.
 NSaved= 8 IEnMin= 8 EnMin= 0.412229186780735E-01 IErMin= 8 ErrMin= 1.34D-07
 ErrMax= 1.34D-07  0.00D+00 EMaxC= 1.00D-01 BMatC= 6.95D-13 BMatP= 1.12D-11
 IDIUse=1 WtCom= 1.00D+00 WtEn= 0.00D+00
 Coeff-Com:  0.108D-03-0.523D-03 0.666D-03 0.315D-02-0.246D-01 0.140D+00
 Coeff-Com: -0.636D+00 0.152D+01
 Coeff:      0.108D-03-0.523D-03 0.666D-03 0.315D-02-0.246D-01 0.140D+00
 Coeff:     -0.636D+00 0.152D+01
 Gap=     0.275 Goal=   None    Shift=    0.000
 RMSDP=1.13D-07 MaxDP=9.25D-07 DE=-6.09D-11 OVMax= 9.05D-07

 Cycle   9  Pass 1  IDiag  3:
 E= 0.412229186734123E-01 Delta-E=       -0.000000000005 Rises=F Damp=F
 DIIS: error= 2.92D-08 at cycle   9 NSaved=   9.
 NSaved= 9 IEnMin= 9 EnMin= 0.412229186734123E-01 IErMin= 9 ErrMin= 2.92D-08
 ErrMax= 2.92D-08  0.00D+00 EMaxC= 1.00D-01 BMatC= 2.80D-14 BMatP= 6.95D-13
 IDIUse=1 WtCom= 1.00D+00 WtEn= 0.00D+00
 Coeff-Com:  0.156D-05 0.243D-04-0.993D-04 0.712D-04 0.266D-02-0.282D-01
 Coeff-Com:  0.167D+00-0.557D+00 0.142D+01
 Coeff:      0.156D-05 0.243D-04-0.993D-04 0.712D-04 0.266D-02-0.282D-01
 Coeff:      0.167D+00-0.557D+00 0.142D+01
 Gap=     0.275 Goal=   None    Shift=    0.000
 RMSDP=2.35D-08 MaxDP=2.28D-07 DE=-4.66D-12 OVMax= 2.15D-07

 Cycle  10  Pass 1  IDiag  3:
 E= 0.412229186731281E-01 Delta-E=        0.000000000000 Rises=F Damp=F
 DIIS: error= 4.72D-09 at cycle  10 NSaved=  10.
 NSaved=10 IEnMin=10 EnMin= 0.412229186731281E-01 IErMin=10 ErrMin= 4.72D-09
 ErrMax= 4.72D-09  0.00D+00 EMaxC= 1.00D-01 BMatC= 7.57D-16 BMatP= 2.80D-14
 IDIUse=1 WtCom= 1.00D+00 WtEn= 0.00D+00
 Coeff-Com: -0.111D-05 0.613D-06 0.147D-04-0.597D-04-0.109D-03 0.251D-02
 Coeff-Com: -0.175D-01 0.742D-01-0.321D+00 0.126D+01
 Coeff:     -0.111D-05 0.613D-06 0.147D-04-0.597D-04-0.109D-03 0.251D-02
 Coeff:     -0.175D-01 0.742D-01-0.321D+00 0.126D+01
 Gap=     0.275 Goal=   None    Shift=    0.000
 RMSDP=3.80D-09 MaxDP=3.35D-08 DE=-2.84D-13 OVMax= 3.88D-08

 Cycle  11  Pass 2  IDiag  1:
 SCF Done:  E(RPM7) =  0.412229186731E-01 A.U. after   11 cycles
            NFock= 10  Conv=0.38D-08     -V/T= 1.0009
 KE=-4.498452017514D+01 PE=-1.221751886749D+02 EE= 7.462546515557D+01
 Leave Link  502 at Sat Dec 13 14:55:31 2025, MaxMem=   536870912 cpu:               1.0 elap:               0.6
 (Enter D:\G16W\l801.exe)
 Range of M.O.s used for correlation:     1    29
 NBasis=    29 NAE=    14 NBE=    14 NFC=     0 NFV=     0
 NROrb=     29 NOA=    14 NOB=    14 NVA=    15 NVB=    15
 Leave Link  801 at Sat Dec 13 14:55:31 2025, MaxMem=   536870912 cpu:               0.0 elap:               0.1
 (Enter D:\G16W\l1101.exe)
 Leave Link 1101 at Sat Dec 13 14:55:31 2025, MaxMem=   536870912 cpu:               0.0 elap:               0.1
 (Enter D:\G16W\l1102.exe)
 Symmetrizing basis deriv contribution to polar:
 IMax=3 JMax=2 DiffMx= 0.00D+00
 Leave Link 1102 at Sat Dec 13 14:55:31 2025, MaxMem=   536870912 cpu:               0.0 elap:               0.1
 (Enter D:\G16W\l1110.exe)
 Leave Link 1110 at Sat Dec 13 14:55:32 2025, MaxMem=   536870912 cpu:               1.0 elap:               0.1
 (Enter D:\G16W\l1002.exe)
 Minotr:  Closed shell wavefunction.
 Leave Link 1002 at Sat Dec 13 14:55:32 2025, MaxMem=   536870912 cpu:               0.0 elap:               0.1
 (Enter D:\G16W\l701.exe)
 ... and contract with generalized density number  0.
 Compute integral first derivatives.
 R6Disp: Adding PM7 dispersion energy 1st derivatives to the gradient.
 Leave Link  701 at Sat Dec 13 14:55:32 2025, MaxMem=   536870912 cpu:               0.0 elap:               0.2
 (Enter D:\G16W\l702.exe)
 L702 exits ... SP integral derivatives will be done elsewhere.
 Leave Link  702 at Sat Dec 13 14:55:32 2025, MaxMem=   536870912 cpu:               0.0 elap:               0.1
[...]
 DIIS: error= 5.77D-07 at cycle   6 NSaved=   6.
 NSaved= 6 IEnMin= 6 EnMin= 0.270771138635979E-01 IErMin= 6 ErrMin= 5.77D-07
 ErrMax= 5.77D-07  0.00D+00 EMaxC= 1.00D-01 BMatC= 1.33D-11 BMatP= 3.15D-10
 IDIUse=1 WtCom= 1.00D+00 WtEn= 0.00D+00
 Coeff-Com: -0.326D-03 0.715D-02-0.270D-01 0.736D-01-0.331D+00 0.128D+01
 Coeff:     -0.326D-03 0.715D-02-0.270D-01 0.736D-01-0.331D+00 0.128D+01
 Gap=     0.215 Goal=   None    Shift=    0.000
 RMSDP=4.79D-07 MaxDP=3.07D-06 DE=-2.24D-09 OVMax= 4.43D-06

 Cycle   7  Pass 1  IDiag  3:
 E= 0.270771137864614E-01 Delta-E=       -0.000000000077 Rises=F Damp=F
 DIIS: error= 1.68D-07 at cycle   7 NSaved=   7.
 NSaved= 7 IEnMin= 7 EnMin= 0.270771137864614E-01 IErMin= 7 ErrMin= 1.68D-07
 ErrMax= 1.68D-07  0.00D+00 EMaxC= 1.00D-01 BMatC= 1.18D-12 BMatP= 1.33D-11
 IDIUse=1 WtCom= 1.00D+00 WtEn= 0.00D+00
 Coeff-Com: -0.213D-03 0.435D-02-0.139D-01 0.179D-01 0.388D-01-0.514D+00
 Coeff-Com:  0.147D+01
 Coeff:     -0.213D-03 0.435D-02-0.139D-01 0.179D-01 0.388D-01-0.514D+00
 Coeff:      0.147D+01
 Gap=     0.215 Goal=   None    Shift=    0.000
 RMSDP=1.48D-07 MaxDP=1.11D-06 DE=-7.71D-11 OVMax= 1.76D-06

 Cycle   8  Pass 1  IDiag  3:
 E= 0.270771137786738E-01 Delta-E=       -0.000000000008 Rises=F Damp=F
 DIIS: error= 3.89D-08 at cycle   8 NSaved=   8.
 NSaved= 8 IEnMin= 8 EnMin= 0.270771137786738E-01 IErMin= 8 ErrMin= 3.89D-08
 ErrMax= 3.89D-08  0.00D+00 EMaxC= 1.00D-01 BMatC= 6.30D-14 BMatP= 1.18D-12
 IDIUse=1 WtCom= 1.00D+00 WtEn= 0.00D+00
 Coeff-Com:  0.974D-04-0.205D-02 0.684D-02-0.112D-01 0.643D-02 0.102D+00
 Coeff-Com: -0.505D+00 0.140D+01
 Coeff:      0.974D-04-0.205D-02 0.684D-02-0.112D-01 0.643D-02 0.102D+00
 Coeff:     -0.505D+00 0.140D+01
 Gap=     0.215 Goal=   None    Shift=    0.000
 RMSDP=3.45D-08 MaxDP=2.35D-07 DE=-7.79D-12 OVMax= 3.25D-07

 Cycle   9  Pass 1  IDiag  3:
 E= 0.270771137787449E-01 Delta-E=        0.000000000000 Rises=F Damp=F
 DIIS: error= 9.19D-09 at cycle   9 NSaved=   9.
 NSaved= 9 IEnMin= 8 EnMin= 0.270771137786738E-01 IErMin= 9 ErrMin= 9.19D-09
 ErrMax= 9.19D-09  0.00D+00 EMaxC= 1.00D-01 BMatC= 2.96D-15 BMatP= 6.30D-14
 IDIUse=1 WtCom= 1.00D+00 WtEn= 0.00D+00
 Coeff-Com: -0.161D-04 0.337D-03-0.113D-02 0.197D-02-0.270D-02-0.619D-02
 Coeff-Com:  0.751D-01-0.418D+00 0.135D+01
 Coeff:     -0.161D-04 0.337D-03-0.113D-02 0.197D-02-0.270D-02-0.619D-02
 Coeff:      0.751D-01-0.418D+00 0.135D+01
 Gap=     0.215 Goal=   None    Shift=    0.000
 RMSDP=7.44D-09 MaxDP=4.39D-08 DE= 7.11D-14 OVMax= 5.46D-08

 Cycle  10  Pass 2  IDiag  1:
 SCF Done:  E(RPM7) =  0.270771137787E-01 A.U. after   10 cycles
            NFock=  9  Conv=0.74D-08     -V/T= 1.0006
 KE=-4.532767919465D+01 PE=-1.224629201138D+02 EE= 7.453142701845D+01
 Leave Link  502 at Sat Dec 13 14:57:34 2025, MaxMem=   536870912 cpu:               0.0 elap:               0.5
 (Enter D:\G16W\l801.exe)
 Range of M.O.s used for correlation:     1    29
 NBasis=    29 NAE=    14 NBE=    14 NFC=     0 NFV=     0
 NROrb=     29 NOA=    14 NOB=    14 NVA=    15 NVB=    15
 Leave Link  801 at Sat Dec 13 14:57:35 2025, MaxMem=   536870912 cpu:               1.0 elap:               0.1
 (Enter D:\G16W\l1101.exe)
 Leave Link 1101 at Sat Dec 13 14:57:35 2025, MaxMem=   536870912 cpu:               0.0 elap:               0.1
 (Enter D:\G16W\l1102.exe)
 Symmetrizing basis deriv contribution to polar:
 IMax=3 JMax=2 DiffMx= 0.00D+00
 Leave Link 1102 at Sat Dec 13 14:57:35 2025, MaxMem=   536870912 cpu:               0.0 elap:               0.1
 (Enter D:\G16W\l1110.exe)
 Leave Link 1110 at Sat Dec 13 14:57:35 2025, MaxMem=   536870912 cpu:               0.0 elap:               0.1
 (Enter D:\G16W\l1002.exe)
 Minotr:  Closed shell wavefunction.
 Leave Link 1002 at Sat Dec 13 14:57:35 2025, MaxMem=   536870912 cpu:               0.0 elap:               0.1
 (Enter D:\G16W\l701.exe)
 ... and contract with generalized density number  0.
 Compute integral first derivatives.
 R6Disp: Adding PM7 dispersion energy 1st derivatives to the gradient.
 Leave Link  701 at Sat Dec 13 14:57:35 2025, MaxMem=   536870912 cpu:               0.0 elap:               0.1
 (Enter D:\G16W\l702.exe)
 L702 exits ... SP integral derivatives will be done elsewhere.
 Leave Link  702 at Sat Dec 13 14:57:35 2025, MaxMem=   536870912 cpu:               0.0 elap:               0.0
 (Enter D:\G16W\l703.exe)
 Integral derivatives from FoFJK, PRISM(SPDF).
 Compute integral first derivatives, UseDBF=F ICtDFT=           0.
 Calling FoFJK, ICntrl=      2147 FMM=F ISym2X=0 I1Cent= 0 IOpClX= 0 NMat=1 NMatS=1 NMatT=0.
 FoFJK:  IHMeth=43 ICntrl=    2147 DoSepK=F KAlg= 0 I1Cent=           0 FoldK=F
 IRaf=         0 NMat=       1 IRICut=       1 DoRegI=T DoRafI=F ISym2E= 0 IDoP0=3 IntGTp=3.
 FoFCou: FMM=F IPFlag=           0 FMFlag=      100000 FMFlg1=         800
         NFxFlg=           0 DoJE=F BraDBF=F KetDBF=F FulRan=T
         wScrn=  0.000000 ICntrl=      2147 IOpCl=  0 I1Cent=           0 NGrid=           0
         NMat0=    1 NMatS0=      1 NMatT0=    0 NMatD0=    1 NMtDS0=    0 NMtDT0=    0
 Symmetry not used in FoFCou.
 Leave Link  703 at Sat Dec 13 14:57:36 2025, MaxMem=   536870912 cpu:               1.0 elap:               0.1
 (Enter D:\G16W\l716.exe)
 Dipole        = 7.84845695D+00 8.35180093D-01-6.80464716D-04
 Polarizability= 0.00000000D+00 0.00000000D+00 0.00000000D+00
                 0.00000000D+00 0.00000000D+00 0.00000000D+00
 -------------------------------------------------------------------
 Center     Atomic                   Forces (Hartrees/Bohr)
 Number     Number              X              Y              Z
 -------------------------------------------------------------------
      1        6           0.001476297   -0.000506457   -0.000000168
      2        7           0.002771145    0.000242932   -0.000000347
      3        1           0.000091356   -0.000025865   -0.000007852
      4        1           0.000116517   -0.000071344   -0.000000018
      5        1           0.000091351   -0.000025824    0.000007788
      6        1           0.000356506    0.000001664    0.000019871
      7        1           0.000356886    0.000001830   -0.000019982
      8        6           0.001929687    0.001292237    0.000000042
      9       53          -0.008391232   -0.001439353    0.000000733
     10        1           0.000296891    0.000296866    0.000220537
     11        1           0.000607907   -0.000063736   -0.000000170
     12        1           0.000296691    0.000297050   -0.000220435
 -------------------------------------------------------------------
 Cartesian Forces:  Max     0.008391232 RMS     0.001573811
 Z-matrix is all fixed cartesians, so copy forces.
 Leave Link  716 at Sat Dec 13 14:57:36 2025, MaxMem=   536870912 cpu:               0.0 elap:               0.1
 (Enter D:\G16W\l123.exe)
 IRC-IRC-IRC-IRC-IRC-IRC-IRC-IRC-IRC-IRC-IRC-IRC-IRC-IRC-IRC-IRC-IRC-IRC
 Pt 40 Step number   1 out of a maximum of  20
 Using modified Bulirsch-Stoer corrector integration.
   Using distance weighted interpolants to fit PES.
 PreDWI: IReCr0= 2 IReCr1= 1 IReCr2= 1 IReCr3= 1
 Modified Bulirsch-Stoer Extrapolation Cycles:
    EPS =    0.000010000000000
    Cycle     1 NS=    48
      PEZero:  N= 2 I= 1 D=  8.28D-04 Err=  2.74D-05
    Cycle     2 NS=    64 Truncation Error =  0.000027426
      PEZero:  N= 3 I= 2 D=  8.28D-04 Err=  1.82D-05
      PEZero:  N= 3 I= 1 D=  1.66D-03 Err=  1.77D-07
    Cycle     3 NS=    96 Truncation Error =  0.000000177
 BS completed in    3 cycles and     208 integration steps.
 Maximum DWI energy   std dev =  0.000000765 at pt    23
 Maximum DWI gradient std dev =  0.119003863 at pt    59
 SUMMARY OF CORRECTOR INTEGRATION:
   Predictor End Point Energy =     0.027077
   Old End Point Energy       =     0.027077
   Corrected End Point Energy =     0.027075
   Predictor End-Start Dist.  =     0.159006
   Old End-Start Dist.        =     0.159006
   New End-Start Dist.        =     0.158869
   New End-Old End Dist.      =     0.008142
 CORRECTOR INTEGRATION CONVERGENCE:
   Recorrection delta-x convergence threshold:    0.010000
   Delta-x Convergence Met
 Point Number:  20          Path Number:   2
                    CURRENT STRUCTURE
                Cartesian Coordinates (Ang):                
 ---------------------------------------------------------------------
 Center     Atomic                     Coordinates (Angstroms)
 Number     Number                        X           Y           Z
 ---------------------------------------------------------------------
      1          6                    4.107771   -0.704488   -0.000275
      2          7                    3.416159    0.629079   -0.000312
      3          1                    3.818106   -1.299399    0.889693
      4          1                    5.203641   -0.591737   -0.000377
      5          1                    3.817953   -1.299528   -0.890108
      6          1                    3.697798    1.175639    0.837174
      7          1                    3.697686    1.175535   -0.837903
      8          6                    1.918889    0.420010   -0.000198
      9         53                   -1.144047   -0.044612    0.000095
     10          1                    1.604261   -0.147121   -0.900513
     11          1                    1.397127    1.399383   -0.000150
     12          1                    1.604401   -0.147133    0.900161
 ---------------------------------------------------------------------
   CHANGE IN THE REACTION COORDINATE =    0.15887
   NET REACTION COORDINATE UP TO THIS POINT =    3.17648
  # OF POINTS ALONG THE PATH =  40
  # OF STEPS =   1

 Maximum number of steps reached.
 Calculation of REVERSE path complete.
 Reaction path calculation complete.
 
 Energies reported relative to the TS energy of           0.041906
 --------------------------------------------------------------------------
    Summary of reaction path following
 --------------------------------------------------------------------------
                        Energy    RxCoord
   1                   -0.01483  -3.17648
   2                   -0.01457  -3.01761
   3                   -0.01428  -2.85865
   4                   -0.01396  -2.69968
   5                   -0.01360  -2.54071
   6                   -0.01322  -2.38177
   7                   -0.01280  -2.22286
   8                   -0.01233  -2.06409
   9                   -0.01179  -1.90586
  10                   -0.01113  -1.74814
  11                   -0.01024  -1.58976
  12                   -0.00910  -1.43093
  13                   -0.00777  -1.27198
  14                   -0.00633  -1.11299
  15                   -0.00490  -0.95399
  16                   -0.00354  -0.79499
  17                   -0.00234  -0.63599
  18                   -0.00134  -0.47700
  19                   -0.00060  -0.31800
  20                   -0.00015  -0.15902
  21                    0.00000   0.00000
  22                   -0.00018   0.15899
  23                   -0.00068   0.31798
  24                   -0.00151   0.47697
  25                   -0.00266   0.63597
  26                   -0.00410   0.79497
  27                   -0.00582   0.95397
  28                   -0.00778   1.11297
  29                   -0.00995   1.27198
  30                   -0.01230   1.43098
  31                   -0.01479   1.58999
  32                   -0.01736   1.74899
  33                   -0.01999   1.90800
  34                   -0.02263   2.06700
  35                   -0.02524   2.22601
  36                   -0.02778   2.38502
  37                   -0.03020   2.54402
  38                   -0.03248   2.70303
  39                   -0.03458   2.86204
  40                   -0.03646   3.02104
  41                   -0.03808   3.18003
 --------------------------------------------------------------------------
 
 Total number of points:                   40
 Total number of gradient calculations:    41
 Total number of Hessian calculations:      1
 IRC-IRC-IRC-IRC-IRC-IRC-IRC-IRC-IRC-IRC-IRC-IRC-IRC-IRC-IRC-IRC-IRC-IRC
 Leave Link  123 at Sat Dec 13 14:57:36 2025, MaxMem=   536870912 cpu:               0.0 elap:               0.1
 (Enter D:\G16W\l202.exe)
                          Input orientation:                          
 ---------------------------------------------------------------------
 Center     Atomic      Atomic             Coordinates (Angstroms)
 Number     Number       Type             X           Y           Z
 ---------------------------------------------------------------------
      1          6           0        4.107991   -0.704514   -0.000275
      2          7           0        3.416078    0.628828   -0.000312
      3          1           0        3.818297   -1.299396    0.889738
      4          1           0        5.203875   -0.591936   -0.000377
      5          1           0        3.818145   -1.299525   -0.890153
      6          1           0        3.696819    1.175532    0.837235
      7          1           0        3.696704    1.175427   -0.837966
      8          6           0        1.919209    0.420374   -0.000198
      9         53           0       -1.144062   -0.044615    0.000095
     10          1           0        1.602815   -0.147298   -0.900735
     11          1           0        1.394373    1.399426   -0.000150
     12          1           0        1.602957   -0.147310    0.900382
 ---------------------------------------------------------------------
                    Distance matrix (angstroms):
                    1          2          3          4          5
     1  C    0.000000
     2  N    1.502180   0.000000
     3  H    1.109023   2.161486   0.000000
     4  H    1.101652   2.164829   1.792381   0.000000
     5  H    1.109023   2.161486   1.779891   1.792382   0.000000
     6  H    2.098823   1.038839   2.478464   2.469161   3.020678
     7  H    2.098824   1.038838   3.020678   2.469149   2.478479
     8  C    2.460923   1.511314   2.712220   3.437122   2.712201
     9  I    5.293347   4.609599   5.195281   6.371488   5.195270
    10  H    2.719783   2.168192   3.072700   3.738447   2.497084
    11  H    3.433698   2.163588   3.735097   4.298585   3.735119
    12  H    2.719716   2.168190   2.497029   3.738405   3.072568
                    6          7          8          9         10
     6  H    0.000000
     7  H    1.675201   0.000000
     8  C    2.105103   2.105100   0.000000
     9  I    5.061985   5.062001   3.098361   0.000000
    10  H    3.025768   2.477481   1.110551   2.892641   0.000000
    11  H    2.460203   2.460251   1.110853   2.920429   1.801903
    12  H    2.477531   3.025766   1.110551   2.892606   1.801116
                   11         12
    11  H    0.000000
    12  H    1.801903   0.000000
 Symmetry turned off by external request.
 Stoichiometry    C2H8IN
 Framework group  C1[X(C2H8IN)]
 Deg. of freedom    30
 Full point group                 C1      NOp   1
 Rotational constants (GHZ):          18.7490397           0.7516741           0.7324308
 Leave Link  202 at Sat Dec 13 14:57:36 2025, MaxMem=   536870912 cpu:               0.0 elap:               0.0
 (Enter D:\G16W\l601.exe)
 Copying SCF densities to generalized density rwf, IOpCl= 0 IROHF=0.

 **********************************************************************

            Population analysis using the SCF density.

 **********************************************************************

 Alpha  occ. eigenvalues --   -1.49399  -0.99835  -0.95228  -0.79332  -0.73553
 Alpha  occ. eigenvalues --   -0.68592  -0.64977  -0.59243  -0.59146  -0.55114
 Alpha  occ. eigenvalues --   -0.55057  -0.25729  -0.25591  -0.25591
 Alpha virt. eigenvalues --   -0.04064   0.03192   0.06334   0.07632   0.09716
 Alpha virt. eigenvalues --    0.10266   0.13014   0.14496   0.14660   0.18031
 Alpha virt. eigenvalues --    4.96496   4.96498   4.96537   4.97086   4.97086
          Condensed to atoms (all electrons):
               1          2          3          4          5          6
     1  C    4.348894   0.000000   0.000000   0.000000   0.000000   0.000000
     2  N    0.000000   5.127520   0.000000   0.000000   0.000000   0.000000
     3  H    0.000000   0.000000   0.800670   0.000000   0.000000   0.000000
     4  H    0.000000   0.000000   0.000000   0.830090   0.000000   0.000000
     5  H    0.000000   0.000000   0.000000   0.000000   0.800669   0.000000
     6  H    0.000000   0.000000   0.000000   0.000000   0.000000   0.717937
     7  H    0.000000   0.000000   0.000000   0.000000   0.000000   0.000000
     8  C    0.000000   0.000000   0.000000   0.000000   0.000000   0.000000
     9  I    0.000000   0.000000   0.000000   0.000000   0.000000   0.000000
    10  H    0.000000   0.000000   0.000000   0.000000   0.000000   0.000000
    11  H    0.000000   0.000000   0.000000   0.000000   0.000000   0.000000
    12  H    0.000000   0.000000   0.000000   0.000000   0.000000   0.000000
               7          8          9         10         11         12
     1  C    0.000000   0.000000   0.000000   0.000000   0.000000   0.000000
     2  N    0.000000   0.000000   0.000000   0.000000   0.000000   0.000000
     3  H    0.000000   0.000000   0.000000   0.000000   0.000000   0.000000
     4  H    0.000000   0.000000   0.000000   0.000000   0.000000   0.000000
     5  H    0.000000   0.000000   0.000000   0.000000   0.000000   0.000000
     6  H    0.000000   0.000000   0.000000   0.000000   0.000000   0.000000
     7  H    0.717938   0.000000   0.000000   0.000000   0.000000   0.000000
     8  C    0.000000   4.326871   0.000000   0.000000   0.000000   0.000000
     9  I    0.000000   0.000000   7.966337   0.000000   0.000000   0.000000
    10  H    0.000000   0.000000   0.000000   0.786874   0.000000   0.000000
    11  H    0.000000   0.000000   0.000000   0.000000   0.789328   0.000000
    12  H    0.000000   0.000000   0.000000   0.000000   0.000000   0.786872
 Mulliken charges:
               1
     1  C   -0.348894
     2  N   -0.127520
     3  H    0.199330
     4  H    0.169910
     5  H    0.199331
     6  H    0.282063
     7  H    0.282062
     8  C   -0.326871
     9  I   -0.966337
    10  H    0.213126
    11  H    0.210672
    12  H    0.213128
 Sum of Mulliken charges =   0.00000
 Mulliken charges with hydrogens summed into heavy atoms:
               1
     1  C    0.219677
     2  N    0.436605
     8  C    0.310056
     9  I   -0.966337
 APT charges:
               1
     1  C   -0.348894
     2  N   -0.127520
     3  H    0.199330
     4  H    0.169910
     5  H    0.199331
     6  H    0.282063
     7  H    0.282062
     8  C   -0.326871
     9  I   -0.966337
    10  H    0.213126
    11  H    0.210672
    12  H    0.213128
 Sum of APT charges =   0.00000
 APT charges with hydrogens summed into heavy atoms:
               1
     1  C    0.219677
     2  N    0.436605
     8  C    0.310056
     9  I   -0.966337
 Charge=              0.0000 electrons
 Dipole moment (field-independent basis, Debye):
    X=             19.9488    Y=              2.1228    Z=             -0.0017  Tot=             20.0614
 N-N= 9.328624940373D+01 E-N=-1.224629202055D+02  KE=-4.532767919465D+01
  Exact polarizability:   0.000   0.000   0.000   0.000   0.000   0.000
 Approx polarizability:  31.836   1.404  16.944  -0.001   0.000  14.801
 Leave Link  601 at Sat Dec 13 14:57:36 2025, MaxMem=   536870912 cpu:               0.0 elap:               0.1
 (Enter D:\G16W\l9999.exe)

 This type of calculation cannot be archived.


 IT IS DOUBTED WHETHER A MAN EVER BRINGS HIS FACULTIES TO BEAR WITH THEIR FULL FORCE
 ON A SUBJECT UNTIL HE WRITES UPON IT.

                          -- CICERO
 Job cpu time:       0 days  0 hours  2 minutes 14.0 seconds.
 Elapsed time:       0 days  0 hours  1 minutes 38.7 seconds.
 File lengths (MBytes):  RWF=      8 Int=      0 D2E=      0 Chk=      3 Scr=      1
 Normal termination of Gaussian 16 at Sat Dec 13 14:57:36 2025.
