 Entering Gaussian System, Link 0=g16.exe
 Input=NEt3_Fine_ts.gjf
 Output=NEt3_Fine_ts.log
 Initial command:
 D:\G16W\l1.exe ".\Gau-26560.inp" "NEt3_Fine_ts.log" /scrdir=".\"
 Entering Link 1 = D:\G16W\l1.exe PID=     24892.
  
 Copyright (c) 1988,1990,1992,1993,1995,1998,2003,2009,2016,
            Gaussian, Inc.  All Rights Reserved.
  
 This is part of the Gaussian(R) 16 program.  It is based on
 the Gaussian(R) 09 system (copyright 2009, Gaussian, Inc.),
 the Gaussian(R) 03 system (copyright 2003, Gaussian, Inc.),
 the Gaussian(R) 98 system (copyright 1998, Gaussian, Inc.),
 the Gaussian(R) 94 system (copyright 1995, Gaussian, Inc.),
 the Gaussian 92(TM) system (copyright 1992, Gaussian, Inc.),
 the Gaussian 90(TM) system (copyright 1990, Gaussian, Inc.),
 the Gaussian 88(TM) system (copyright 1988, Gaussian, Inc.),
 the Gaussian 86(TM) system (copyright 1986, Carnegie Mellon
 University), and the Gaussian 82(TM) system (copyright 1983,
 Carnegie Mellon University). Gaussian is a federally registered
 trademark of Gaussian, Inc.
  
 This software contains proprietary and confidential information,
 including trade secrets, belonging to Gaussian, Inc.
  
 This software is provided under written license and may be
 used, copied, transmitted, or stored only in accord with that
 written license.
  
 The following legend is applicable only to US Government
 contracts under FAR:
  
                    RESTRICTED RIGHTS LEGEND
  
 Use, reproduction and disclosure by the US Government is
 subject to restrictions as set forth in subparagraphs (a)
 and (c) of the Commercial Computer Software - Restricted
 Rights clause in FAR 52.227-19.
  
 Gaussian, Inc.
 340 Quinnipiac St., Bldg. 40, Wallingford CT 06492
  
  
 ---------------------------------------------------------------
 Warning -- This program may not be used in any manner that
 competes with the business of Gaussian, Inc. or will provide
 assistance to any competitor of Gaussian, Inc.  The licensee
 of this program is prohibited from giving any competitor of
 Gaussian, Inc. access to this program.  By using this program,
 the user acknowledges that Gaussian, Inc. is engaged in the
 business of creating and licensing software in the field of
 computational chemistry and represents and warrants to the
 licensee that it is not a competitor of Gaussian, Inc. and that
 it will not use this program in any manner prohibited above.
 ---------------------------------------------------------------
  

 Cite this work as:
 Gaussian 16, Revision A.03,
 M. J. Frisch, G. W. Trucks, H. B. Schlegel, G. E. Scuseria, 
 M. A. Robb, J. R. Cheeseman, G. Scalmani, V. Barone, 
 G. A. Petersson, H. Nakatsuji, X. Li, M. Caricato, A. V. Marenich, 
 J. Bloino, B. G. Janesko, R. Gomperts, B. Mennucci, H. P. Hratchian, 
 J. V. Ortiz, A. F. Izmaylov, J. L. Sonnenberg, D. Williams-Young, 
 F. Ding, F. Lipparini, F. Egidi, J. Goings, B. Peng, A. Petrone, 
 T. Henderson, D. Ranasinghe, V. G. Zakrzewski, J. Gao, N. Rega, 
 G. Zheng, W. Liang, M. Hada, M. Ehara, K. Toyota, R. Fukuda, 
 J. Hasegawa, M. Ishida, T. Nakajima, Y. Honda, O. Kitao, H. Nakai, 
 T. Vreven, K. Throssell, J. A. Montgomery, Jr., J. E. Peralta, 
 F. Ogliaro, M. J. Bearpark, J. J. Heyd, E. N. Brothers, K. N. Kudin, 
 V. N. Staroverov, T. A. Keith, R. Kobayashi, J. Normand, 
 K. Raghavachari, A. P. Rendell, J. C. Burant, S. S. Iyengar, 
 J. Tomasi, M. Cossi, J. M. Millam, M. Klene, C. Adamo, R. Cammi, 
 J. W. Ochterski, R. L. Martin, K. Morokuma, O. Farkas, 
 J. B. Foresman, and D. J. Fox, Gaussian, Inc., Wallingford CT, 2016.
 
 ******************************************
 Gaussian 16:  EM64W-G16RevA.03 17-Dec-2016
                13-Dec-2025 
 ******************************************
 %nproc=6
 Will use up to    6 processors via shared memory.
 %mem=4GB
 -------------------------------
 #PM7 opt(ts,calcall,noeig) freq
 -------------------------------
 1/5=1,10=4,11=1,18=20,26=1,38=1/1,3;
 2/9=110,12=2,17=6,18=5,40=1/2;
 3/5=2,25=1,41=4200000,71=2,140=1/1,2,3;
 4/35=1/1;
 5/5=2,35=1,38=5/2;
 8/6=4,10=90,11=11/1;
 11/6=1,8=1,9=11,15=111,16=1/1,2,10;
 10/6=1/2;
 6/7=2,8=2,9=2,10=2,18=1,28=1/1;
 7/10=1,25=1/1,2,3,16;
 1/5=1,10=4,11=1,18=20,26=1/3(3);
 2/9=110/2;
 7/8=1,9=1,25=1,44=-1/16;
 99//99;
 2/9=110/2;
 3/5=2,25=1,41=4200000,71=2,135=20,140=1/1,2,3;
 4/5=5,16=3,35=1/1;
 5/5=2,35=1,38=5/2;
 8/6=4,10=90,11=11/1;
 11/6=1,8=1,9=11,15=111,16=1/1,2,10;
 10/6=1/2;
 7/10=1,25=1/1,2,3,16;
 1/5=1,10=4,11=1,18=20,26=1/3(-8);
 2/9=110/2;
 6/7=2,8=2,9=2,10=2,18=1,19=2,28=1/1;
 7/8=1,9=1,25=1,44=-1/16;
 99//99;
 Leave Link    1 at Sat Dec 13 14:32:54 2025, MaxMem=   536870912 cpu:               1.0 elap:               0.1
 (Enter D:\G16W\l101.exe)
 -------------------
 title: NEt3_Fine_TS
 -------------------
 Symbolic Z-matrix:
 Charge =  0 Multiplicity = 1
 C                     1.89458   0.86119   2.07799 
 C                     2.74018   0.05706   1.09145 
 N                     2.06189  -0.16123  -0.2304 
 C                     2.40789  -1.5287   -0.76606 
 C                     1.76256  -2.66138   0.03019 
 C                     2.51289   0.84462  -1.25637 
 C                     2.29726   2.29683  -0.84012 
 H                     1.54731   1.81597   1.6663 
 H                     2.47772   1.09447   2.97941 
 H                     1.00479   0.30928   2.41229 
 H                     2.97821  -0.92886   1.55484 
 H                     3.72147   0.55936   0.93929 
 H                     3.51177  -1.66303  -0.79009 
 H                     2.05999  -1.58809  -1.82397 
 H                     0.67624  -2.7207   -0.13546 
 H                     1.91941  -2.57237   1.11157 
 H                     2.17893  -3.63136  -0.27549 
 H                     1.93642   0.64625  -2.1919 
 H                     3.58707   0.68818  -1.50336 
 H                     2.59042   2.97378  -1.65584 
 H                     2.89299   2.57889   0.03555 
 H                     1.24429   2.51843  -0.61524 
 C                     0.14679  -0.06346  -0.13452 
 I                    -2.48282   0.04506  -0.01729 
 H                     0.09284  -0.74203   0.70778 
 H                     0.02512  -0.43967  -1.14281 
 H                     0.13842   1.00478   0.04066 
 
 Add virtual bond connecting atoms C23        and N3         Dist= 3.63D+00.
 Add virtual bond connecting atoms H27        and H22        Dist= 3.75D+00.
 Add virtual bond connecting atoms I24        and C23        Dist= 4.98D+00.
 Add virtual bond connecting atoms I24        and H25        Dist= 5.27D+00.
 Add virtual bond connecting atoms I24        and H26        Dist= 5.27D+00.
 Add virtual bond connecting atoms I24        and H27        Dist= 5.28D+00.
 ITRead=  0  0  0  0  0  0  0  0  0  0  0  0  0  0  0  0  0  0  0  0
 ITRead=  0  0  0  0  0  0  0
 MicOpt= -1 -1 -1 -1 -1 -1 -1 -1 -1 -1 -1 -1 -1 -1 -1 -1 -1 -1 -1 -1
 MicOpt= -1 -1 -1 -1 -1 -1 -1
 NAtoms=     27 NQM=       27 NQMF=       0 NMMI=      0 NMMIF=      0
                NMic=       0 NMicF=      0.
                    Isotopes and Nuclear Properties:
 (Nuclear quadrupole moments (NQMom) in fm**2, nuclear magnetic moments (NMagM)
  in nuclear magnetons)

  Atom         1           2           3           4           5           6           7           8           9          10
 IAtWgt=          12          12          14          12          12          12          12           1           1           1
 AtmWgt=  12.0000000  12.0000000  14.0030740  12.0000000  12.0000000  12.0000000  12.0000000   1.0078250   1.0078250   1.0078250
 NucSpn=           0           0           2           0           0           0           0           1           1           1
 AtZEff=   0.0000000   0.0000000   0.0000000   0.0000000   0.0000000   0.0000000   0.0000000   0.0000000   0.0000000   0.0000000
 NQMom=    0.0000000   0.0000000   2.0440000   0.0000000   0.0000000   0.0000000   0.0000000   0.0000000   0.0000000   0.0000000
 NMagM=    0.0000000   0.0000000   0.4037610   0.0000000   0.0000000   0.0000000   0.0000000   2.7928460   2.7928460   2.7928460
 AtZNuc=   6.0000000   6.0000000   7.0000000   6.0000000   6.0000000   6.0000000   6.0000000   1.0000000   1.0000000   1.0000000

  Atom        11          12          13          14          15          16          17          18          19          20
 IAtWgt=           1           1           1           1           1           1           1           1           1           1
 AtmWgt=   1.0078250   1.0078250   1.0078250   1.0078250   1.0078250   1.0078250   1.0078250   1.0078250   1.0078250   1.0078250
 NucSpn=           1           1           1           1           1           1           1           1           1           1
 AtZEff=   0.0000000   0.0000000   0.0000000   0.0000000   0.0000000   0.0000000   0.0000000   0.0000000   0.0000000   0.0000000
 NQMom=    0.0000000   0.0000000   0.0000000   0.0000000   0.0000000   0.0000000   0.0000000   0.0000000   0.0000000   0.0000000
 NMagM=    2.7928460   2.7928460   2.7928460   2.7928460   2.7928460   2.7928460   2.7928460   2.7928460   2.7928460   2.7928460
 AtZNuc=   1.0000000   1.0000000   1.0000000   1.0000000   1.0000000   1.0000000   1.0000000   1.0000000   1.0000000   1.0000000

  Atom        21          22          23          24          25          26          27
 IAtWgt=           1           1          12         127           1           1           1
 AtmWgt=   1.0078250   1.0078250  12.0000000 126.9004000   1.0078250   1.0078250   1.0078250
 NucSpn=           1           1           0           5           1           1           1
 AtZEff=   0.0000000   0.0000000   0.0000000   0.0000000   0.0000000   0.0000000   0.0000000
 NQMom=    0.0000000   0.0000000   0.0000000 -71.0000000   0.0000000   0.0000000   0.0000000
 NMagM=    2.7928460   2.7928460   0.0000000   2.8132800   2.7928460   2.7928460   2.7928460
 AtZNuc=   1.0000000   1.0000000   6.0000000  53.0000000   1.0000000   1.0000000   1.0000000
 Leave Link  101 at Sat Dec 13 14:32:54 2025, MaxMem=   536870912 cpu:               0.0 elap:               0.2
 (Enter D:\G16W\l103.exe)

 GradGradGradGradGradGradGradGradGradGradGradGradGradGradGradGradGradGrad
 Berny optimization.
 Initialization pass.
                           ----------------------------
                           !    Initial Parameters    !
                           ! (Angstroms and Degrees)  !
 --------------------------                            --------------------------
 ! Name  Definition              Value          Derivative Info.                !
 --------------------------------------------------------------------------------
 ! R1    R(1,2)                  1.528          calculate D2E/DX2 analytically  !
 ! R2    R(1,8)                  1.0962         calculate D2E/DX2 analytically  !
 ! R3    R(1,9)                  1.0987         calculate D2E/DX2 analytically  !
 ! R4    R(1,10)                 1.0991         calculate D2E/DX2 analytically  !
 ! R5    R(2,3)                  1.5017         calculate D2E/DX2 analytically  !
 ! R6    R(2,11)                 1.1151         calculate D2E/DX2 analytically  !
 ! R7    R(2,12)                 1.1128         calculate D2E/DX2 analytically  !
 ! R8    R(3,4)                  1.5088         calculate D2E/DX2 analytically  !
 ! R9    R(3,6)                  1.5059         calculate D2E/DX2 analytically  !
 ! R10   R(3,23)                 1.92           calculate D2E/DX2 analytically  !
 ! R11   R(4,5)                  1.5276         calculate D2E/DX2 analytically  !
 ! R12   R(4,13)                 1.1123         calculate D2E/DX2 analytically  !
 ! R13   R(4,14)                 1.1152         calculate D2E/DX2 analytically  !
 ! R14   R(5,15)                 1.1005         calculate D2E/DX2 analytically  !
 ! R15   R(5,16)                 1.0963         calculate D2E/DX2 analytically  !
 ! R16   R(5,17)                 1.0989         calculate D2E/DX2 analytically  !
 ! R17   R(6,7)                  1.526          calculate D2E/DX2 analytically  !
 ! R18   R(6,18)                 1.1166         calculate D2E/DX2 analytically  !
 ! R19   R(6,19)                 1.1133         calculate D2E/DX2 analytically  !
 ! R20   R(7,20)                 1.0998         calculate D2E/DX2 analytically  !
 ! R21   R(7,21)                 1.096          calculate D2E/DX2 analytically  !
 ! R22   R(7,22)                 1.0993         calculate D2E/DX2 analytically  !
 ! R23   R(22,27)                1.986          calculate D2E/DX2 analytically  !
 ! R24   R(23,24)                2.6345         calculate D2E/DX2 analytically  !
 ! R25   R(23,25)                1.083          calculate D2E/DX2 analytically  !
 ! R26   R(23,26)                1.083          calculate D2E/DX2 analytically  !
 ! R27   R(23,27)                1.0825         calculate D2E/DX2 analytically  !
 ! R28   R(24,25)                2.7891         calculate D2E/DX2 analytically  !
 ! R29   R(24,26)                2.7913         calculate D2E/DX2 analytically  !
 ! R30   R(24,27)                2.792          calculate D2E/DX2 analytically  !
 ! A1    A(2,1,8)              113.0291         calculate D2E/DX2 analytically  !
 ! A2    A(2,1,9)              110.3488         calculate D2E/DX2 analytically  !
 ! A3    A(2,1,10)             112.3404         calculate D2E/DX2 analytically  !
 ! A4    A(8,1,9)              106.9383         calculate D2E/DX2 analytically  !
 ! A5    A(8,1,10)             107.1648         calculate D2E/DX2 analytically  !
 ! A6    A(9,1,10)             106.6633         calculate D2E/DX2 analytically  !
 ! A7    A(1,2,3)              113.2565         calculate D2E/DX2 analytically  !
 ! A8    A(1,2,11)             108.3685         calculate D2E/DX2 analytically  !
 ! A9    A(1,2,12)             109.7988         calculate D2E/DX2 analytically  !
 ! A10   A(3,2,11)             109.4932         calculate D2E/DX2 analytically  !
 ! A11   A(3,2,12)             110.0933         calculate D2E/DX2 analytically  !
 ! A12   A(11,2,12)            105.5257         calculate D2E/DX2 analytically  !
 ! A13   A(2,3,4)              109.9179         calculate D2E/DX2 analytically  !
 ! A14   A(2,3,6)              111.5521         calculate D2E/DX2 analytically  !
 ! A15   A(2,3,23)             113.5268         calculate D2E/DX2 analytically  !
 ! A16   A(4,3,6)              107.146          calculate D2E/DX2 analytically  !
 ! A17   A(4,3,23)             107.0142         calculate D2E/DX2 analytically  !
 ! A18   A(6,3,23)             107.3811         calculate D2E/DX2 analytically  !
 ! A19   A(3,4,5)              112.9601         calculate D2E/DX2 analytically  !
 ! A20   A(3,4,13)             110.1634         calculate D2E/DX2 analytically  !
 ! A21   A(3,4,14)             108.2703         calculate D2E/DX2 analytically  !
 ! A22   A(5,4,13)             109.9365         calculate D2E/DX2 analytically  !
 ! A23   A(5,4,14)             108.856          calculate D2E/DX2 analytically  !
 ! A24   A(13,4,14)            106.4199         calculate D2E/DX2 analytically  !
 ! A25   A(4,5,15)             112.2428         calculate D2E/DX2 analytically  !
 ! A26   A(4,5,16)             113.1736         calculate D2E/DX2 analytically  !
 ! A27   A(4,5,17)             110.4528         calculate D2E/DX2 analytically  !
 ! A28   A(15,5,16)            107.1017         calculate D2E/DX2 analytically  !
 ! A29   A(15,5,17)            106.5327         calculate D2E/DX2 analytically  !
 ! A30   A(16,5,17)            106.967          calculate D2E/DX2 analytically  !
 ! A31   A(3,6,7)              114.0469         calculate D2E/DX2 analytically  !
 ! A32   A(3,6,18)             107.3093         calculate D2E/DX2 analytically  !
 ! A33   A(3,6,19)             110.2588         calculate D2E/DX2 analytically  !
 ! A34   A(7,6,18)             108.944          calculate D2E/DX2 analytically  !
 ! A35   A(7,6,19)             109.305          calculate D2E/DX2 analytically  !
 ! A36   A(18,6,19)            106.6954         calculate D2E/DX2 analytically  !
 ! A37   A(6,7,20)             110.2291         calculate D2E/DX2 analytically  !
 ! A38   A(6,7,21)             112.708          calculate D2E/DX2 analytically  !
 ! A39   A(6,7,22)             112.5193         calculate D2E/DX2 analytically  !
 ! A40   A(20,7,21)            106.8149         calculate D2E/DX2 analytically  !
 ! A41   A(20,7,22)            106.4374         calculate D2E/DX2 analytically  !
 ! A42   A(21,7,22)            107.7777         calculate D2E/DX2 analytically  !
 ! A43   A(7,22,27)            116.5697         calculate D2E/DX2 analytically  !
 ! A44   A(3,23,25)             93.2457         calculate D2E/DX2 analytically  !
 ! A45   A(3,23,26)             92.7437         calculate D2E/DX2 analytically  !
 ! A46   A(3,23,27)             93.7866         calculate D2E/DX2 analytically  !
 ! A47   A(25,23,26)           120.0556         calculate D2E/DX2 analytically  !
 ! A48   A(25,23,27)           119.4758         calculate D2E/DX2 analytically  !
 ! A49   A(26,23,27)           119.5087         calculate D2E/DX2 analytically  !
 ! A50   A(25,24,26)            39.2954         calculate D2E/DX2 analytically  !
 ! A51   A(25,24,27)            39.1611         calculate D2E/DX2 analytically  !
 ! A52   A(26,24,27)            39.1532         calculate D2E/DX2 analytically  !
 ! A53   A(22,27,23)           133.9745         calculate D2E/DX2 analytically  !
 ! A54   A(22,27,24)           141.0683         calculate D2E/DX2 analytically  !
 ! A55   L(3,23,24,10,-1)      180.3958         calculate D2E/DX2 analytically  !
 ! A56   L(3,23,24,10,-2)      180.5214         calculate D2E/DX2 analytically  !
 ! D1    D(8,1,2,3)            -53.619          calculate D2E/DX2 analytically  !
 ! D2    D(8,1,2,11)          -175.3148         calculate D2E/DX2 analytically  !
 ! D3    D(8,1,2,12)            69.8951         calculate D2E/DX2 analytically  !
 ! D4    D(9,1,2,3)           -173.308          calculate D2E/DX2 analytically  !
 ! D5    D(9,1,2,11)            64.9962         calculate D2E/DX2 analytically  !
 ! D6    D(9,1,2,12)           -49.7939         calculate D2E/DX2 analytically  !
 ! D7    D(10,1,2,3)            67.8061         calculate D2E/DX2 analytically  !
 ! D8    D(10,1,2,11)          -53.8896         calculate D2E/DX2 analytically  !
 ! D9    D(10,1,2,12)         -168.6798         calculate D2E/DX2 analytically  !
 ! D10   D(1,2,3,4)           -143.9673         calculate D2E/DX2 analytically  !
 ! D11   D(1,2,3,6)             97.331          calculate D2E/DX2 analytically  !
 ! D12   D(1,2,3,23)           -24.1526         calculate D2E/DX2 analytically  !
 ! D13   D(11,2,3,4)           -22.9041         calculate D2E/DX2 analytically  !
 ! D14   D(11,2,3,6)          -141.6057         calculate D2E/DX2 analytically  !
 ! D15   D(11,2,3,23)           96.9106         calculate D2E/DX2 analytically  !
 ! D16   D(12,2,3,4)            92.6804         calculate D2E/DX2 analytically  !
 ! D17   D(12,2,3,6)           -26.0212         calculate D2E/DX2 analytically  !
 ! D18   D(12,2,3,23)         -147.5049         calculate D2E/DX2 analytically  !
 ! D19   D(2,3,4,5)             70.2083         calculate D2E/DX2 analytically  !
 ! D20   D(2,3,4,13)           -53.1628         calculate D2E/DX2 analytically  !
 ! D21   D(2,3,4,14)          -169.1613         calculate D2E/DX2 analytically  !
 ! D22   D(6,3,4,5)           -168.4136         calculate D2E/DX2 analytically  !
 ! D23   D(6,3,4,13)            68.2153         calculate D2E/DX2 analytically  !
 ! D24   D(6,3,4,14)           -47.7831         calculate D2E/DX2 analytically  !
 ! D25   D(23,3,4,5)           -53.4946         calculate D2E/DX2 analytically  !
 ! D26   D(23,3,4,13)         -176.8658         calculate D2E/DX2 analytically  !
 ! D27   D(23,3,4,14)           67.1358         calculate D2E/DX2 analytically  !
 ! D28   D(2,3,6,7)            -56.8624         calculate D2E/DX2 analytically  !
 ! D29   D(2,3,6,18)          -177.6207         calculate D2E/DX2 analytically  !
 ! D30   D(2,3,6,19)            66.5445         calculate D2E/DX2 analytically  !
 ! D31   D(4,3,6,7)           -177.2051         calculate D2E/DX2 analytically  !
 ! D32   D(4,3,6,18)            62.0367         calculate D2E/DX2 analytically  !
 ! D33   D(4,3,6,19)           -53.7982         calculate D2E/DX2 analytically  !
 ! D34   D(23,3,6,7)            68.1218         calculate D2E/DX2 analytically  !
 ! D35   D(23,3,6,18)          -52.6365         calculate D2E/DX2 analytically  !
 ! D36   D(23,3,6,19)         -168.4713         calculate D2E/DX2 analytically  !
 ! D37   D(2,3,23,25)          -49.5704         calculate D2E/DX2 analytically  !
 ! D38   D(2,3,23,26)         -169.8977         calculate D2E/DX2 analytically  !
 ! D39   D(2,3,23,27)           70.2761         calculate D2E/DX2 analytically  !
 ! D40   D(4,3,23,25)           71.8819         calculate D2E/DX2 analytically  !
 ! D41   D(4,3,23,26)          -48.4454         calculate D2E/DX2 analytically  !
 ! D42   D(4,3,23,27)         -168.2716         calculate D2E/DX2 analytically  !
 ! D43   D(6,3,23,25)         -173.357          calculate D2E/DX2 analytically  !
 ! D44   D(6,3,23,26)           66.3157         calculate D2E/DX2 analytically  !
 ! D45   D(6,3,23,27)          -53.5105         calculate D2E/DX2 analytically  !
 ! D46   D(3,4,5,15)            71.4072         calculate D2E/DX2 analytically  !
 ! D47   D(3,4,5,16)           -49.9688         calculate D2E/DX2 analytically  !
 ! D48   D(3,4,5,17)          -169.8651         calculate D2E/DX2 analytically  !
 ! D49   D(13,4,5,15)         -165.0962         calculate D2E/DX2 analytically  !
 ! D50   D(13,4,5,16)           73.5278         calculate D2E/DX2 analytically  !
 ! D51   D(13,4,5,17)          -46.3685         calculate D2E/DX2 analytically  !
 ! D52   D(14,4,5,15)          -48.8888         calculate D2E/DX2 analytically  !
 ! D53   D(14,4,5,16)         -170.2648         calculate D2E/DX2 analytically  !
 ! D54   D(14,4,5,17)           69.8388         calculate D2E/DX2 analytically  !
 ! D55   D(3,6,7,20)          -176.5863         calculate D2E/DX2 analytically  !
 ! D56   D(3,6,7,21)            64.1773         calculate D2E/DX2 analytically  !
 ! D57   D(3,6,7,22)           -57.9501         calculate D2E/DX2 analytically  !
 ! D58   D(18,6,7,20)          -56.7438         calculate D2E/DX2 analytically  !
 ! D59   D(18,6,7,21)         -175.9802         calculate D2E/DX2 analytically  !
 ! D60   D(18,6,7,22)           61.8925         calculate D2E/DX2 analytically  !
 ! D61   D(19,6,7,20)           59.4917         calculate D2E/DX2 analytically  !
 ! D62   D(19,6,7,21)          -59.7446         calculate D2E/DX2 analytically  !
 ! D63   D(19,6,7,22)          178.128          calculate D2E/DX2 analytically  !
 ! D64   D(6,7,22,27)           28.2425         calculate D2E/DX2 analytically  !
 ! D65   D(20,7,22,27)         149.0788         calculate D2E/DX2 analytically  !
 ! D66   D(21,7,22,27)         -96.6329         calculate D2E/DX2 analytically  !
 ! D67   D(7,22,27,23)         -31.2949         calculate D2E/DX2 analytically  !
 ! D68   D(7,22,27,24)        -148.2264         calculate D2E/DX2 analytically  !
 ! D69   D(3,23,27,22)          36.2699         calculate D2E/DX2 analytically  !
 ! D70   D(25,23,27,22)        132.1581         calculate D2E/DX2 analytically  !
 ! D71   D(26,23,27,22)        -59.0423         calculate D2E/DX2 analytically  !
 ! D72   D(25,24,27,22)        169.2612         calculate D2E/DX2 analytically  !
 ! D73   D(26,24,27,22)        104.9145         calculate D2E/DX2 analytically  !
 --------------------------------------------------------------------------------
 Trust Radius=3.00D-01 FncErr=1.00D-07 GrdErr=1.00D-07 EigMax=2.50D+02 EigMin=1.00D-04
 Number of steps in this run=    162 maximum allowed number of steps=    162.
 Search for a saddle point of order  1.
 GradGradGradGradGradGradGradGradGradGradGradGradGradGradGradGradGradGrad

 Leave Link  103 at Sat Dec 13 14:32:54 2025, MaxMem=   536870912 cpu:               0.0 elap:               0.1
 (Enter D:\G16W\l202.exe)
                          Input orientation:                          
 ---------------------------------------------------------------------
 Center     Atomic      Atomic             Coordinates (Angstroms)
 Number     Number       Type             X           Y           Z
 ---------------------------------------------------------------------
      1          6           0        1.894579    0.861188    2.077985
      2          6           0        2.740178    0.057055    1.091454
      3          7           0        2.061895   -0.161234   -0.230395
      4          6           0        2.407890   -1.528700   -0.766061
      5          6           0        1.762563   -2.661378    0.030188
      6          6           0        2.512888    0.844623   -1.256366
      7          6           0        2.297255    2.296826   -0.840117
      8          1           0        1.547308    1.815968    1.666299
      9          1           0        2.477719    1.094469    2.979413
     10          1           0        1.004791    0.309277    2.412293
     11          1           0        2.978214   -0.928860    1.554841
     12          1           0        3.721468    0.559355    0.939293
     13          1           0        3.511765   -1.663026   -0.790089
     14          1           0        2.059991   -1.588091   -1.823965
     15          1           0        0.676241   -2.720696   -0.135456
     16          1           0        1.919405   -2.572371    1.111569
     17          1           0        2.178929   -3.631358   -0.275485
     18          1           0        1.936422    0.646250   -2.191902
     19          1           0        3.587070    0.688180   -1.503358
     20          1           0        2.590416    2.973783   -1.655835
     21          1           0        2.892987    2.578887    0.035545
     22          1           0        1.244286    2.518429   -0.615237
     23          6           0        0.146785   -0.063458   -0.134520
     24         53           0       -2.482820    0.045064   -0.017286
     25          1           0        0.092837   -0.742025    0.707782
     26          1           0        0.025124   -0.439665   -1.142811
     27          1           0        0.138419    1.004782    0.040657
 ---------------------------------------------------------------------
                    Distance matrix (angstroms):
                    1          2          3          4          5
     1  C    0.000000
     2  C    1.528042   0.000000
     3  N    2.530209   1.501667   0.000000
     4  C    3.750153   2.464832   1.508845   0.000000
     5  C    4.076686   3.077644   2.531447   1.527553   0.000000
     6  C    3.391235   2.486802   1.505908   2.425713   3.809232
     7  C    3.276969   2.990606   2.543465   3.827842   5.062323
     8  H    1.096215   2.201627   2.787755   4.224190   4.771773
     9  H    1.098656   2.170139   3.471681   4.573234   4.828640
    10  H    1.099132   2.195404   2.884900   3.930494   3.882452
    11  H    2.156900   1.115086   2.148478   2.464075   2.608446
    12  H    2.173763   1.112829   2.154438   2.998949   3.877744
    13  H    4.148831   2.663499   2.161194   1.112277   2.174688
    14  H    4.609940   3.415967   2.139016   1.115223   2.162936
    15  H    4.383328   3.671654   2.912026   2.194795   1.100478
    16  H    3.567058   2.754624   2.763106   2.203035   1.096315
    17  H    5.079630   3.973401   3.472390   2.171234   1.098935
    18  H    4.275498   3.431268   2.124920   2.643050   3.988523
    19  H    3.964905   2.801534   2.160578   2.616989   4.110977
    20  H    4.346108   4.009654   3.484185   4.593187   5.939954
    21  H    2.849363   2.738235   2.875709   4.213094   5.360808
    22  H    3.228432   3.347962   2.827929   4.213784   5.245530
    23  C    2.967311   2.871101   1.920000   2.767377   3.063830
    24  I    4.921163   5.339397   4.554383   5.191959   5.034914
    25  H    2.773810   2.791800   2.257141   2.854915   2.632686
    26  H    3.944694   3.551083   2.249103   2.646793   3.054608
    27  H    2.693589   2.961674   2.265573   3.495686   4.009823
                    6          7          8          9         10
     6  C    0.000000
     7  C    1.525993   0.000000
     8  H    3.227666   2.660031   0.000000
     9  H    4.243287   4.008371   1.763659   0.000000
    10  H    4.002501   4.024796   1.766621   1.762858   0.000000
    11  H    3.356286   4.074872   3.097418   2.524631   2.482460
    12  H    2.522491   2.865918   2.614304   2.448540   3.100420
    13  H    2.739247   4.142217   4.690025   4.783532   4.519972
    14  H    2.538776   4.014577   4.902286   5.517523   4.760182
    15  H    4.164278   5.319752   4.958467   5.244351   3.972368
    16  H    4.199427   5.259366   4.438885   4.152863   3.291245
    17  H    4.594351   5.956188   5.817459   5.746049   4.912368
    18  H    1.116643   2.163775   4.050354   5.218851   4.709575
    19  H    1.113259   2.165930   3.934369   4.635835   4.705747
    20  H    2.167697   1.099823   3.669494   5.003004   5.115023
    21  H    2.195719   1.096010   2.247722   3.322996   3.790164
    22  H    2.195911   1.099283   2.406383   4.058390   3.755482
    23  C    2.771569   3.270066   2.955783   4.058402   2.713183
    24  I    5.208811   5.347579   4.713013   5.889686   4.258649
    25  H    3.497424   4.060796   3.094765   3.771032   2.200512
    26  H    2.802010   3.569676   3.911013   5.036022   3.762901
    27  H    2.710355   2.665654   2.299066   3.757214   2.618966
                   11         12         13         14         15
    11  H    0.000000
    12  H    1.773728   0.000000
    13  H    2.514433   2.823777   0.000000
    14  H    3.562871   3.873968   1.783862   0.000000
    15  H    3.371477   4.602959   3.096354   2.459394   0.000000
    16  H    2.004668   3.617294   2.641746   3.099344   1.767068
    17  H    3.360423   4.627871   2.432201   2.566491   1.762664
    18  H    4.195758   3.605319   3.127226   2.267802   4.141660
    19  H    3.512564   2.449735   2.458169   2.759741   4.686632
    20  H    5.068476   3.720676   4.806079   4.595684   6.196992
    21  H    3.823586   2.362552   4.365591   4.638466   5.747067
    22  H    4.427137   3.520080   4.759895   4.357741   5.291625
    23  C    3.408790   3.784089   3.783052   2.973060   2.709472
    24  I    5.765675   6.298629   6.280911   5.154456   4.200364
    25  H    3.012942   3.861884   3.844597   3.315911   2.228576
    26  H    4.029563   4.358458   3.711831   2.433832   2.577173
    27  H    3.754485   3.720778   4.380274   3.727230   3.768216
                   16         17         18         19         20
    16  H    0.000000
    17  H    1.764292   0.000000
    18  H    4.612237   4.693548   0.000000
    19  H    4.500016   4.706266   1.788991   0.000000
    20  H    6.234469   6.760368   2.476386   2.498109   0.000000
    21  H    5.351743   6.258895   3.100262   2.534708   1.763025
    22  H    5.417923   6.229676   2.543615   3.102774   1.761323
    23  C    3.315051   4.108454   2.817678   3.778126   4.184563
    24  I    5.244508   5.942613   4.961862   6.282163   6.082759
    25  H    2.617167   3.696869   3.705979   4.375419   5.062787
    26  H    3.635789   3.946902   2.435747   3.753597   4.300645
    27  H    4.137002   5.075177   2.888889   3.791756   3.573141
                   21         22         23         24         25
    21  H    0.000000
    22  H    1.773524   0.000000
    23  C    3.814778   2.846355   0.000000
    24  I    5.943261   4.512915   2.634453   0.000000
    25  H    4.395589   3.702266   1.082976   2.789129   0.000000
    26  H    4.327218   3.242686   1.083044   2.791335   1.876353
    27  H    3.172614   1.986018   1.082540   2.792008   1.870419
                   26         27
    26  H    0.000000
    27  H    1.870791   0.000000
 Stoichiometry    C7H18IN
 Framework group  C1[X(C7H18IN)]
 Deg. of freedom    75
 Full point group                 C1      NOp   1
 Largest Abelian subgroup         C1      NOp   1
 Largest concise Abelian subgroup C1      NOp   1
                         Standard orientation:                         
 ---------------------------------------------------------------------
 Center     Atomic      Atomic             Coordinates (Angstroms)
 Number     Number       Type             X           Y           Z
 ---------------------------------------------------------------------
      1          6           0       -1.894579   -0.861188    2.077985
      2          6           0       -2.740178   -0.057055    1.091454
      3          7           0       -2.061895    0.161234   -0.230395
      4          6           0       -2.407890    1.528700   -0.766061
      5          6           0       -1.762563    2.661378    0.030188
      6          6           0       -2.512888   -0.844623   -1.256366
      7          6           0       -2.297255   -2.296826   -0.840117
      8          1           0       -1.547308   -1.815968    1.666299
      9          1           0       -2.477719   -1.094469    2.979413
     10          1           0       -1.004791   -0.309277    2.412293
     11          1           0       -2.978214    0.928860    1.554841
     12          1           0       -3.721468   -0.559355    0.939293
     13          1           0       -3.511765    1.663026   -0.790089
     14          1           0       -2.059991    1.588091   -1.823965
     15          1           0       -0.676241    2.720696   -0.135456
     16          1           0       -1.919405    2.572371    1.111569
     17          1           0       -2.178929    3.631358   -0.275485
     18          1           0       -1.936422   -0.646250   -2.191902
     19          1           0       -3.587070   -0.688180   -1.503358
     20          1           0       -2.590416   -2.973783   -1.655835
     21          1           0       -2.892987   -2.578887    0.035545
     22          1           0       -1.244286   -2.518429   -0.615237
     23          6           0       -0.146785    0.063458   -0.134520
     24         53           0        2.482820   -0.045064   -0.017286
     25          1           0       -0.092837    0.742025    0.707782
     26          1           0       -0.025124    0.439665   -1.142811
     27          1           0       -0.138419   -1.004782    0.040657
 ---------------------------------------------------------------------
 Rotational constants (GHZ):           1.2710064           0.3553332           0.3281527
 Leave Link  202 at Sat Dec 13 14:32:54 2025, MaxMem=   536870912 cpu:               0.0 elap:               0.1
 (Enter D:\G16W\l301.exe)
 Standard basis: VSTO-6G (5D, 7F)
 Ernie: Thresh=  0.10000D-02 Tol=  0.10000D-05 Strict=F.
 EHB=         0.000000000 Number of Hydrogen Bonds=     0
  NNHCO=     0 NNPyr=     0 NCTC=     0               EPep=         0.000000000
    EC=       262.762819478  ECS=         4.046502935   EG=         0.771862209
   EHC=         0.000624988  EAt=       -51.949606858  AtH=         3.621591535
 EPDDG=         0.000000000  ECC=       267.581809610 EAtT=        55.571198393
  EHyb=         0.000000000
 There are    60 symmetry adapted cartesian basis functions of A   symmetry.
 There are    59 symmetry adapted basis functions of A   symmetry.
    59 basis functions,   360 primitive gaussians,    60 cartesian basis functions
    29 alpha electrons       29 beta electrons
       nuclear repulsion energy       323.1530080027 Hartrees.
 IExCor=    0 DFT=F Ex=HF Corr=None ExCW=0 ScaHFX=  1.000000
 ScaDFX=  1.000000  1.000000  1.000000  1.000000 ScalE2=  1.000000  1.000000
 IRadAn=      5 IRanWt=     -1 IRanGd=            0 ICorTp=0 IEmpDi=251
 Integral buffers will be    131072 words long.
 Regular integral format.
 Two-electron integral symmetry is turned off.
 R6Disp:  PM7 Dispersion energy=       -0.0072334036 Hartrees.
 Nuclear repulsion after empirical dispersion term =      323.1457745991 Hartrees.
 Leave Link  301 at Sat Dec 13 14:32:54 2025, MaxMem=   536870912 cpu:               0.0 elap:               0.1
 (Enter D:\G16W\l302.exe)
 Do NDO integrals.
 NPDir=0 NMtPBC=     1 NCelOv=     1 NCel=       1 NClECP=     1 NCelD=      1
         NCelK=      1 NCelE2=     1 NClLst=     1 CellRange=     0.0.
 One-electron integrals computed using PRISM.
 NBasis=    59 RedAO= F EigKep=  0.00D+00  NBF=    59
 NBsUse=    59 1.00D-04 EigRej=  0.00D+00 NBFU=    59
 Leave Link  302 at Sat Dec 13 14:32:54 2025, MaxMem=   536870912 cpu:               0.0 elap:               0.2
 (Enter D:\G16W\l303.exe)
 DipDrv:  MaxL=1.
 Leave Link  303 at Sat Dec 13 14:32:55 2025, MaxMem=   536870912 cpu:               1.0 elap:               0.1
 (Enter D:\G16W\l401.exe)
 Nonelectrostatic core Hamiltonian diagonalized for initial guess.
 JPrj=0 DoOrth=F DoCkMO=F.
 Leave Link  401 at Sat Dec 13 14:32:55 2025, MaxMem=   536870912 cpu:               0.0 elap:               0.1
 (Enter D:\G16W\l502.exe)
 Keep J ints in memory in canonical form, NReq=1857768.
 FoFCou: FMM=F IPFlag=           0 FMFlag=           0 FMFlg1=           0
         NFxFlg=           0 DoJE=F BraDBF=F KetDBF=F FulRan=T
         wScrn=  0.000000 ICntrl=       600 IOpCl=  2 I1Cent=           0 NGrid=           0
         NMat0=    1 NMatS0=    143 NMatT0=    0 NMatD0=    1 NMtDS0=    0 NMtDT0=    0
 Symmetry not used in FoFCou.
 Two-electron integral symmetry not used.
 Closed shell SCF:
 Using DIIS extrapolation, IDIIS=  1040.
 Overlap will be assumed to be unity.
 NGot=   536870912 LenX=   536792817 LenY=   536788776
 Requested convergence on RMS density matrix=1.00D-08 within 128 cycles.
 Requested convergence on MAX density matrix=1.00D-06.
 Requested convergence on             energy=1.00D-06.
 No special actions if energy rises.

 Cycle   1  Pass 1  IDiag  1:
 E= 0.939452723131296    
 DIIS: error= 4.25D-02 at cycle   1 NSaved=   1.
 NSaved= 1 IEnMin= 1 EnMin= 0.939452723131296     IErMin= 1 ErrMin= 4.25D-02
 ErrMax= 4.25D-02  0.00D+00 EMaxC= 1.00D-01 BMatC= 1.59D-01 BMatP= 1.59D-01
 IDIUse=3 WtCom= 5.75D-01 WtEn= 4.25D-01
 Coeff-Com:  0.100D+01
 Coeff-En:   0.100D+01
 Coeff:      0.100D+01
 GapD=    2.000 DampG=2.000 DampE=0.500 DampFc=1.0000 IDamp=-1.
 RMSDP=1.47D-02 MaxDP=1.41D-01              OVMax= 0.00D+00

 Cycle   2  Pass 1  IDiag  1:
 E= 0.243199383627825     Delta-E=       -0.696253339503 Rises=F Damp=F
 DIIS: error= 2.16D-02 at cycle   2 NSaved=   2.
 NSaved= 2 IEnMin= 2 EnMin= 0.243199383627825     IErMin= 2 ErrMin= 2.16D-02
 ErrMax= 2.16D-02  0.00D+00 EMaxC= 1.00D-01 BMatC= 3.51D-02 BMatP= 1.59D-01
 IDIUse=3 WtCom= 7.84D-01 WtEn= 2.16D-01
 Coeff-Com: -0.533D+00 0.153D+01
 Coeff-En:   0.000D+00 0.100D+01
 Coeff:     -0.418D+00 0.142D+01
 RMSDP=1.01D-02 MaxDP=1.89D-01 DE=-6.96D-01 OVMax= 0.00D+00

 Cycle   3  Pass 1  IDiag  1:
 E= 0.419161495356661E-01 Delta-E=       -0.201283234092 Rises=F Damp=F
 DIIS: error= 7.68D-03 at cycle   3 NSaved=   3.
 NSaved= 3 IEnMin= 3 EnMin= 0.419161495356661E-01 IErMin= 3 ErrMin= 7.68D-03
 ErrMax= 7.68D-03  0.00D+00 EMaxC= 1.00D-01 BMatC= 4.52D-03 BMatP= 3.51D-02
 IDIUse=3 WtCom= 9.23D-01 WtEn= 7.68D-02
 Coeff-Com:  0.584D-02-0.434D+00 0.143D+01
 Coeff-En:   0.000D+00 0.000D+00 0.100D+01
 Coeff:      0.539D-02-0.400D+00 0.140D+01
 RMSDP=4.37D-03 MaxDP=6.12D-02 DE=-2.01D-01 OVMax= 0.00D+00

 Cycle   4  Pass 1  IDiag  3:
 E= 0.156771711135093E-01 Delta-E=       -0.026238978422 Rises=F Damp=F
 DIIS: error= 1.50D-03 at cycle   4 NSaved=   4.
 NSaved= 4 IEnMin= 4 EnMin= 0.156771711135093E-01 IErMin= 4 ErrMin= 1.50D-03
 ErrMax= 1.50D-03  0.00D+00 EMaxC= 1.00D-01 BMatC= 2.03D-04 BMatP= 4.52D-03
 IDIUse=3 WtCom= 9.85D-01 WtEn= 1.50D-02
 Coeff-Com:  0.380D-01-0.974D-01-0.613D-01 0.112D+01
 Coeff-En:   0.000D+00 0.000D+00 0.000D+00 0.100D+01
 Coeff:      0.375D-01-0.960D-01-0.604D-01 0.112D+01
 Gap=     0.277 Goal=   None    Shift=    0.000
 RMSDP=8.74D-04 MaxDP=1.43D-02 DE=-2.62D-02 OVMax= 2.38D-02

 Cycle   5  Pass 1  IDiag  3:
 E= 0.146043425705216E-01 Delta-E=       -0.001072828543 Rises=F Damp=F
 DIIS: error= 5.32D-04 at cycle   5 NSaved=   5.
 NSaved= 5 IEnMin= 5 EnMin= 0.146043425705216E-01 IErMin= 5 ErrMin= 5.32D-04
 ErrMax= 5.32D-04  0.00D+00 EMaxC= 1.00D-01 BMatC= 1.58D-05 BMatP= 2.03D-04
 IDIUse=3 WtCom= 9.95D-01 WtEn= 5.32D-03
 Coeff-Com: -0.833D-02 0.323D-01-0.145D-01-0.406D+00 0.140D+01
 Coeff-En:   0.000D+00 0.000D+00 0.000D+00 0.000D+00 0.100D+01
 Coeff:     -0.829D-02 0.321D-01-0.144D-01-0.404D+00 0.139D+01
 Gap=     0.277 Goal=   None    Shift=    0.000
 RMSDP=2.94D-04 MaxDP=4.89D-03 DE=-1.07D-03 OVMax= 7.47D-03

 Cycle   6  Pass 1  IDiag  3:
 E= 0.144969994626081E-01 Delta-E=       -0.000107343108 Rises=F Damp=F
 DIIS: error= 1.31D-04 at cycle   6 NSaved=   6.
 NSaved= 6 IEnMin= 6 EnMin= 0.144969994626081E-01 IErMin= 6 ErrMin= 1.31D-04
 ErrMax= 1.31D-04  0.00D+00 EMaxC= 1.00D-01 BMatC= 1.09D-06 BMatP= 1.58D-05
 IDIUse=3 WtCom= 9.99D-01 WtEn= 1.31D-03
 Coeff-Com: -0.800D-03-0.122D-02 0.234D-02 0.707D-01-0.471D+00 0.140D+01
 Coeff-En:   0.000D+00 0.000D+00 0.000D+00 0.000D+00 0.000D+00 0.100D+01
 Coeff:     -0.799D-03-0.122D-02 0.234D-02 0.706D-01-0.471D+00 0.140D+01
 Gap=     0.276 Goal=   None    Shift=    0.000
 RMSDP=8.52D-05 MaxDP=1.43D-03 DE=-1.07D-04 OVMax= 1.99D-03

 Cycle   7  Pass 1  IDiag  3:
 E= 0.144894956879398E-01 Delta-E=       -0.000007503775 Rises=F Damp=F
 DIIS: error= 2.00D-05 at cycle   7 NSaved=   7.
 NSaved= 7 IEnMin= 7 EnMin= 0.144894956879398E-01 IErMin= 7 ErrMin= 2.00D-05
 ErrMax= 2.00D-05  0.00D+00 EMaxC= 1.00D-01 BMatC= 4.56D-08 BMatP= 1.09D-06
 IDIUse=1 WtCom= 1.00D+00 WtEn= 0.00D+00
 Coeff-Com:  0.213D-03-0.859D-04-0.478D-03-0.117D-02 0.495D-01-0.293D+00
 Coeff-Com:  0.125D+01
 Coeff:      0.213D-03-0.859D-04-0.478D-03-0.117D-02 0.495D-01-0.293D+00
 Coeff:      0.125D+01
 Gap=     0.276 Goal=   None    Shift=    0.000
 RMSDP=1.45D-05 MaxDP=2.33D-04 DE=-7.50D-06 OVMax= 3.81D-04

 Cycle   8  Pass 1  IDiag  3:
 E= 0.144892019412168E-01 Delta-E=       -0.000000293747 Rises=F Damp=F
 DIIS: error= 8.76D-06 at cycle   8 NSaved=   8.
 NSaved= 8 IEnMin= 8 EnMin= 0.144892019412168E-01 IErMin= 8 ErrMin= 8.76D-06
 ErrMax= 8.76D-06  0.00D+00 EMaxC= 1.00D-01 BMatC= 5.02D-09 BMatP= 4.56D-08
 IDIUse=1 WtCom= 1.00D+00 WtEn= 0.00D+00
 Coeff-Com: -0.367D-04 0.123D-03-0.574D-04-0.408D-02 0.142D-01 0.420D-02
 Coeff-Com: -0.464D+00 0.145D+01
 Coeff:     -0.367D-04 0.123D-03-0.574D-04-0.408D-02 0.142D-01 0.420D-02
 Coeff:     -0.464D+00 0.145D+01
 Gap=     0.276 Goal=   None    Shift=    0.000
 RMSDP=6.09D-06 MaxDP=1.06D-04 DE=-2.94D-07 OVMax= 1.81D-04

 Cycle   9  Pass 1  IDiag  3:
 E= 0.144891650094792E-01 Delta-E=       -0.000000036932 Rises=F Damp=F
 DIIS: error= 2.05D-06 at cycle   9 NSaved=   9.
 NSaved= 9 IEnMin= 9 EnMin= 0.144891650094792E-01 IErMin= 9 ErrMin= 2.05D-06
 ErrMax= 2.05D-06  0.00D+00 EMaxC= 1.00D-01 BMatC= 2.71D-10 BMatP= 5.02D-09
 IDIUse=1 WtCom= 1.00D+00 WtEn= 0.00D+00
 Coeff-Com: -0.973D-05 0.138D-04-0.825D-05 0.109D-02-0.461D-02 0.406D-02
 Coeff-Com:  0.116D+00-0.543D+00 0.143D+01
 Coeff:     -0.973D-05 0.138D-04-0.825D-05 0.109D-02-0.461D-02 0.406D-02
 Coeff:      0.116D+00-0.543D+00 0.143D+01
 Gap=     0.276 Goal=   None    Shift=    0.000
 RMSDP=1.32D-06 MaxDP=2.05D-05 DE=-3.69D-08 OVMax= 3.39D-05

 Cycle  10  Pass 1  IDiag  3:
 E= 0.144891632248232E-01 Delta-E=       -0.000000001785 Rises=F Damp=F
 DIIS: error= 3.96D-07 at cycle  10 NSaved=  10.
 NSaved=10 IEnMin=10 EnMin= 0.144891632248232E-01 IErMin=10 ErrMin= 3.96D-07
 ErrMax= 3.96D-07  0.00D+00 EMaxC= 1.00D-01 BMatC= 1.36D-11 BMatP= 2.71D-10
 IDIUse=1 WtCom= 1.00D+00 WtEn= 0.00D+00
 Coeff-Com:  0.888D-06-0.478D-06 0.356D-05-0.193D-03 0.798D-03-0.100D-02
 Coeff-Com: -0.171D-01 0.104D+00-0.424D+00 0.134D+01
 Coeff:      0.888D-06-0.478D-06 0.356D-05-0.193D-03 0.798D-03-0.100D-02
 Coeff:     -0.171D-01 0.104D+00-0.424D+00 0.134D+01
 Gap=     0.276 Goal=   None    Shift=    0.000
 RMSDP=2.39D-07 MaxDP=3.61D-06 DE=-1.78D-09 OVMax= 4.51D-06

 Cycle  11  Pass 1  IDiag  3:
 E= 0.144891631423434E-01 Delta-E=       -0.000000000082 Rises=F Damp=F
 DIIS: error= 1.16D-07 at cycle  11 NSaved=  11.
 NSaved=11 IEnMin=11 EnMin= 0.144891631423434E-01 IErMin=11 ErrMin= 1.16D-07
 ErrMax= 1.16D-07  0.00D+00 EMaxC= 1.00D-01 BMatC= 1.53D-12 BMatP= 1.36D-11
 IDIUse=1 WtCom= 1.00D+00 WtEn= 0.00D+00
 Coeff-Com:  0.175D-06-0.113D-05 0.111D-06 0.259D-04-0.119D-03 0.244D-03
 Coeff-Com:  0.999D-03-0.151D-01 0.995D-01-0.619D+00 0.153D+01
 Coeff:      0.175D-06-0.113D-05 0.111D-06 0.259D-04-0.119D-03 0.244D-03
 Coeff:      0.999D-03-0.151D-01 0.995D-01-0.619D+00 0.153D+01
 Gap=     0.276 Goal=   None    Shift=    0.000
 RMSDP=9.26D-08 MaxDP=1.18D-06 DE=-8.25D-11 OVMax= 1.47D-06

 Cycle  12  Pass 1  IDiag  3:
 E= 0.144891631326800E-01 Delta-E=       -0.000000000010 Rises=F Damp=F
 DIIS: error= 4.09D-08 at cycle  12 NSaved=  12.
 NSaved=12 IEnMin=12 EnMin= 0.144891631326800E-01 IErMin=12 ErrMin= 4.09D-08
 ErrMax= 4.09D-08  0.00D+00 EMaxC= 1.00D-01 BMatC= 1.18D-13 BMatP= 1.53D-12
 IDIUse=1 WtCom= 1.00D+00 WtEn= 0.00D+00
 Coeff-Com: -0.356D-07 0.126D-06-0.706D-06 0.138D-04-0.553D-04 0.978D-04
 Coeff-Com:  0.661D-03-0.159D-02-0.773D-02 0.150D+00-0.642D+00 0.150D+01
 Coeff:     -0.356D-07 0.126D-06-0.706D-06 0.138D-04-0.553D-04 0.978D-04
 Coeff:      0.661D-03-0.159D-02-0.773D-02 0.150D+00-0.642D+00 0.150D+01
 Gap=     0.276 Goal=   None    Shift=    0.000
 RMSDP=2.61D-08 MaxDP=2.84D-07 DE=-9.66D-12 OVMax= 3.45D-07

 Cycle  13  Pass 1  IDiag  3:
 E= 0.144891631310884E-01 Delta-E=       -0.000000000002 Rises=F Damp=F
 DIIS: error= 8.55D-09 at cycle  13 NSaved=  13.
 NSaved=13 IEnMin=13 EnMin= 0.144891631310884E-01 IErMin=13 ErrMin= 8.55D-09
 ErrMax= 8.55D-09  0.00D+00 EMaxC= 1.00D-01 BMatC= 5.64D-15 BMatP= 1.18D-13
 IDIUse=1 WtCom= 1.00D+00 WtEn= 0.00D+00
 Coeff-Com:  0.519D-08-0.121D-06 0.479D-06-0.404D-05 0.111D-04-0.599D-05
 Coeff-Com: -0.297D-03 0.106D-02-0.150D-02-0.180D-01 0.124D+00-0.488D+00
 Coeff-Com:  0.138D+01
 Coeff:      0.519D-08-0.121D-06 0.479D-06-0.404D-05 0.111D-04-0.599D-05
 Coeff:     -0.297D-03 0.106D-02-0.150D-02-0.180D-01 0.124D+00-0.488D+00
 Coeff:      0.138D+01
 Gap=     0.276 Goal=   None    Shift=    0.000
 RMSDP=5.47D-09 MaxDP=7.45D-08 DE=-1.59D-12 OVMax= 1.15D-07

 Cycle  14  Pass 2  IDiag  1:
 SCF Done:  E(RPM7) =  0.144891631311E-01 A.U. after   14 cycles
            NFock= 13  Conv=0.55D-08     -V/T= 1.0002
 KE=-8.845481898583D+01 PE=-5.207318466670D+02 EE= 2.860553802168D+02
 Leave Link  502 at Sat Dec 13 14:32:56 2025, MaxMem=   536870912 cpu:               1.0 elap:               0.9
 (Enter D:\G16W\l801.exe)
 Range of M.O.s used for correlation:     1    59
 NBasis=    59 NAE=    29 NBE=    29 NFC=     0 NFV=     0
 NROrb=     59 NOA=    29 NOB=    29 NVA=    30 NVB=    30
 Leave Link  801 at Sat Dec 13 14:32:56 2025, MaxMem=   536870912 cpu:               0.0 elap:               0.1
 (Enter D:\G16W\l1101.exe)
 Using compressed storage, NAtomX=    27.
 Will process     28 centers per pass.
 R6Disp: Adding PM7 dispersion energy 1st derivatives to the gradient.
 Leave Link 1101 at Sat Dec 13 14:32:56 2025, MaxMem=   536870912 cpu:               0.0 elap:               0.2
 (Enter D:\G16W\l1102.exe)
 Symmetrizing basis deriv contribution to polar:
 IMax=3 JMax=2 DiffMx= 0.00D+00
 Leave Link 1102 at Sat Dec 13 14:32:56 2025, MaxMem=   536870912 cpu:               0.0 elap:               0.1
 (Enter D:\G16W\l1110.exe)
 Forming Gx(P) for the SCF density, NAtomX=    27.
 Integral derivatives from FoFJK, PRISM(SPDF).
 Do as many integral derivatives as possible in FoFJK.
 G2DrvN: MDV=     536809902.
 G2DrvN: will do    28 centers at a time, making    1 passes.
 Calling FoFCou, ICntrl=  3107 FMM=F I1Cent=   0 AccDes= 0.00D+00.
 FoFJK:  IHMeth=43 ICntrl=    3107 DoSepK=F KAlg= 0 I1Cent=           0 FoldK=F
 IRaf=         0 NMat=       1 IRICut=       1 DoRegI=T DoRafI=F ISym2E= 0 IDoP0=3 IntGTp=3.
 FoFCou: FMM=F IPFlag=           0 FMFlag=      100000 FMFlg1=           0
         NFxFlg=           0 DoJE=F BraDBF=F KetDBF=F FulRan=T
         wScrn=  0.000000 ICntrl=      3107 IOpCl=  0 I1Cent=           0 NGrid=           0
         NMat0=    1 NMatS0=      1 NMatT0=    0 NMatD0=    1 NMtDS0=    0 NMtDT0=    0
 Symmetry not used in FoFCou.
 End of G2Drv F.D. properties file   721 does not exist.
 End of G2Drv F.D. properties file   722 does not exist.
 End of G2Drv F.D. properties file   788 does not exist.
 Leave Link 1110 at Sat Dec 13 14:32:56 2025, MaxMem=   536870912 cpu:               0.0 elap:               0.2
 (Enter D:\G16W\l1002.exe)
 Minotr:  Closed shell wavefunction.
          IDoAtm=111111111111111111111111111
          Direct CPHF calculation.
          Differentiating once with respect to electric field.
                with respect to dipole field.
          Differentiating once with respect to nuclear coordinates.
          Electric field/nuclear overlap derivatives assumed to be zero.
          Requested convergence is 1.0D-08 RMS, and 1.0D-07 maximum.
          NewPWx=T KeepS1=F KeepF1=F KeepIn=T MapXYZ=F SortEE=F KeepMc=T.
 Keep J ints in memory in canonical form, NReq=1860226.
 FoFCou: FMM=F IPFlag=           0 FMFlag=           0 FMFlg1=           0
         NFxFlg=           0 DoJE=F BraDBF=F KetDBF=F FulRan=T
         wScrn=  0.000000 ICntrl=       600 IOpCl=  2 I1Cent=           0 NGrid=           0
         NMat0=    1 NMatS0=    143 NMatT0=    0 NMatD0=    1 NMtDS0=    0 NMtDT0=    0
 Symmetry not used in FoFCou.
 Two-electron integral symmetry not used.
          MDV=     536870912 using IRadAn=       1.
          Solving linear equations separately, MaxMat=       0.
          There are    84 degrees of freedom in the 1st order CPHF.  IDoFFX=5 NUNeed=    84.
 LinEq1:  Iter=  0 NonCon=    84 RMS=2.89D-01 Max=7.59D+00 NDo=    84
 AX will form    84 AO Fock derivatives at one time.
 LinEq1:  Iter=  1 NonCon=    84 RMS=3.47D-02 Max=2.81D-01 NDo=    84
 LinEq1:  Iter=  2 NonCon=    84 RMS=5.52D-03 Max=4.28D-02 NDo=    84
 LinEq1:  Iter=  3 NonCon=    84 RMS=8.83D-04 Max=1.21D-02 NDo=    84
 LinEq1:  Iter=  4 NonCon=    84 RMS=1.70D-04 Max=2.14D-03 NDo=    84
 LinEq1:  Iter=  5 NonCon=    84 RMS=2.78D-05 Max=2.78D-04 NDo=    84
 LinEq1:  Iter=  6 NonCon=    77 RMS=3.77D-06 Max=2.46D-05 NDo=    84
 LinEq1:  Iter=  7 NonCon=    17 RMS=5.41D-07 Max=3.41D-06 NDo=    84
 LinEq1:  Iter=  8 NonCon=     3 RMS=8.91D-08 Max=8.18D-07 NDo=    84
 LinEq1:  Iter=  9 NonCon=     1 RMS=1.41D-08 Max=8.03D-08 NDo=    84
 LinEq1:  Iter= 10 NonCon=     0 RMS=2.55D-09 Max=2.00D-08 NDo=    84
 Linear equations converged to 1.000D-08 1.000D-07 after    10 iterations.
 FullF1:  Do perturbations      1 to       3.
 Isotropic polarizability for W=    0.000000       98.18 Bohr**3.
 End of Minotr F.D. properties file   721 does not exist.
 End of Minotr F.D. properties file   722 does not exist.
 End of Minotr F.D. properties file   788 does not exist.
 Leave Link 1002 at Sat Dec 13 14:32:57 2025, MaxMem=   536870912 cpu:               1.0 elap:               0.7
 (Enter D:\G16W\l601.exe)
 Copying SCF densities to generalized density rwf, IOpCl= 0 IROHF=0.

 **********************************************************************

            Population analysis using the SCF density.

 **********************************************************************

 Orbital symmetries:
       Occupied  (A) (A) (A) (A) (A) (A) (A) (A) (A) (A) (A) (A)
                 (A) (A) (A) (A) (A) (A) (A) (A) (A) (A) (A) (A)
                 (A) (A) (A) (A) (A)
       Virtual   (A) (A) (A) (A) (A) (A) (A) (A) (A) (A) (A) (A)
                 (A) (A) (A) (A) (A) (A) (A) (A) (A) (A) (A) (A)
                 (A) (A) (A) (A) (A) (A)
 The electronic state is 1-A.
 Alpha  occ. eigenvalues --   -1.35524  -1.04312  -1.02311  -0.98843  -0.94260
 Alpha  occ. eigenvalues --   -0.84439  -0.80041  -0.78610  -0.70476  -0.67377
 Alpha  occ. eigenvalues --   -0.64723  -0.62251  -0.60657  -0.56520  -0.55528
 Alpha  occ. eigenvalues --   -0.55122  -0.53770  -0.53465  -0.52847  -0.50822
 Alpha  occ. eigenvalues --   -0.50111  -0.49884  -0.48204  -0.47726  -0.46421
 Alpha  occ. eigenvalues --   -0.43725  -0.28713  -0.28562  -0.28554
 Alpha virt. eigenvalues --   -0.00975   0.05314   0.09419   0.10044   0.11198
 Alpha virt. eigenvalues --    0.12331   0.12912   0.15062   0.15260   0.15642
 Alpha virt. eigenvalues --    0.17073   0.17162   0.17387   0.17690   0.17965
 Alpha virt. eigenvalues --    0.18132   0.18180   0.18402   0.18609   0.19411
 Alpha virt. eigenvalues --    0.19681   0.19865   0.22080   0.22248   0.22695
 Alpha virt. eigenvalues --    4.82617   4.82631   4.82814   4.83573   4.83574
          Condensed to atoms (all electrons):
               1          2          3          4          5          6
     1  C    4.455332   0.000000   0.000000   0.000000   0.000000   0.000000
     2  C    0.000000   4.119384   0.000000   0.000000   0.000000   0.000000
     3  N    0.000000   0.000000   5.316085   0.000000   0.000000   0.000000
     4  C    0.000000   0.000000   0.000000   4.129428   0.000000   0.000000
     5  C    0.000000   0.000000   0.000000   0.000000   4.457147   0.000000
     6  C    0.000000   0.000000   0.000000   0.000000   0.000000   4.125171
     7  C    0.000000   0.000000   0.000000   0.000000   0.000000   0.000000
     8  H    0.000000   0.000000   0.000000   0.000000   0.000000   0.000000
     9  H    0.000000   0.000000   0.000000   0.000000   0.000000   0.000000
    10  H    0.000000   0.000000   0.000000   0.000000   0.000000   0.000000
    11  H    0.000000   0.000000   0.000000   0.000000   0.000000   0.000000
    12  H    0.000000   0.000000   0.000000   0.000000   0.000000   0.000000
    13  H    0.000000   0.000000   0.000000   0.000000   0.000000   0.000000
    14  H    0.000000   0.000000   0.000000   0.000000   0.000000   0.000000
    15  H    0.000000   0.000000   0.000000   0.000000   0.000000   0.000000
    16  H    0.000000   0.000000   0.000000   0.000000   0.000000   0.000000
    17  H    0.000000   0.000000   0.000000   0.000000   0.000000   0.000000
    18  H    0.000000   0.000000   0.000000   0.000000   0.000000   0.000000
    19  H    0.000000   0.000000   0.000000   0.000000   0.000000   0.000000
    20  H    0.000000   0.000000   0.000000   0.000000   0.000000   0.000000
    21  H    0.000000   0.000000   0.000000   0.000000   0.000000   0.000000
    22  H    0.000000   0.000000   0.000000   0.000000   0.000000   0.000000
    23  C    0.000000   0.000000   0.000000   0.000000   0.000000   0.000000
    24  I    0.000000   0.000000   0.000000   0.000000   0.000000   0.000000
    25  H    0.000000   0.000000   0.000000   0.000000   0.000000   0.000000
    26  H    0.000000   0.000000   0.000000   0.000000   0.000000   0.000000
    27  H    0.000000   0.000000   0.000000   0.000000   0.000000   0.000000
               7          8          9         10         11         12
     1  C    0.000000   0.000000   0.000000   0.000000   0.000000   0.000000
     2  C    0.000000   0.000000   0.000000   0.000000   0.000000   0.000000
     3  N    0.000000   0.000000   0.000000   0.000000   0.000000   0.000000
     4  C    0.000000   0.000000   0.000000   0.000000   0.000000   0.000000
     5  C    0.000000   0.000000   0.000000   0.000000   0.000000   0.000000
     6  C    0.000000   0.000000   0.000000   0.000000   0.000000   0.000000
     7  C    4.455234   0.000000   0.000000   0.000000   0.000000   0.000000
     8  H    0.000000   0.837210   0.000000   0.000000   0.000000   0.000000
     9  H    0.000000   0.000000   0.842854   0.000000   0.000000   0.000000
    10  H    0.000000   0.000000   0.000000   0.831000   0.000000   0.000000
    11  H    0.000000   0.000000   0.000000   0.000000   0.851345   0.000000
    12  H    0.000000   0.000000   0.000000   0.000000   0.000000   0.863675
    13  H    0.000000   0.000000   0.000000   0.000000   0.000000   0.000000
    14  H    0.000000   0.000000   0.000000   0.000000   0.000000   0.000000
    15  H    0.000000   0.000000   0.000000   0.000000   0.000000   0.000000
    16  H    0.000000   0.000000   0.000000   0.000000   0.000000   0.000000
    17  H    0.000000   0.000000   0.000000   0.000000   0.000000   0.000000
    18  H    0.000000   0.000000   0.000000   0.000000   0.000000   0.000000
    19  H    0.000000   0.000000   0.000000   0.000000   0.000000   0.000000
    20  H    0.000000   0.000000   0.000000   0.000000   0.000000   0.000000
    21  H    0.000000   0.000000   0.000000   0.000000   0.000000   0.000000
    22  H    0.000000   0.000000   0.000000   0.000000   0.000000   0.000000
    23  C    0.000000   0.000000   0.000000   0.000000   0.000000   0.000000
    24  I    0.000000   0.000000   0.000000   0.000000   0.000000   0.000000
    25  H    0.000000   0.000000   0.000000   0.000000   0.000000   0.000000
    26  H    0.000000   0.000000   0.000000   0.000000   0.000000   0.000000
    27  H    0.000000   0.000000   0.000000   0.000000   0.000000   0.000000
              13         14         15         16         17         18
     1  C    0.000000   0.000000   0.000000   0.000000   0.000000   0.000000
     2  C    0.000000   0.000000   0.000000   0.000000   0.000000   0.000000
     3  N    0.000000   0.000000   0.000000   0.000000   0.000000   0.000000
     4  C    0.000000   0.000000   0.000000   0.000000   0.000000   0.000000
     5  C    0.000000   0.000000   0.000000   0.000000   0.000000   0.000000
     6  C    0.000000   0.000000   0.000000   0.000000   0.000000   0.000000
     7  C    0.000000   0.000000   0.000000   0.000000   0.000000   0.000000
     8  H    0.000000   0.000000   0.000000   0.000000   0.000000   0.000000
     9  H    0.000000   0.000000   0.000000   0.000000   0.000000   0.000000
    10  H    0.000000   0.000000   0.000000   0.000000   0.000000   0.000000
    11  H    0.000000   0.000000   0.000000   0.000000   0.000000   0.000000
    12  H    0.000000   0.000000   0.000000   0.000000   0.000000   0.000000
    13  H    0.866317   0.000000   0.000000   0.000000   0.000000   0.000000
    14  H    0.000000   0.845880   0.000000   0.000000   0.000000   0.000000
    15  H    0.000000   0.000000   0.825192   0.000000   0.000000   0.000000
    16  H    0.000000   0.000000   0.000000   0.843250   0.000000   0.000000
    17  H    0.000000   0.000000   0.000000   0.000000   0.839070   0.000000
    18  H    0.000000   0.000000   0.000000   0.000000   0.000000   0.843743
    19  H    0.000000   0.000000   0.000000   0.000000   0.000000   0.000000
    20  H    0.000000   0.000000   0.000000   0.000000   0.000000   0.000000
    21  H    0.000000   0.000000   0.000000   0.000000   0.000000   0.000000
    22  H    0.000000   0.000000   0.000000   0.000000   0.000000   0.000000
    23  C    0.000000   0.000000   0.000000   0.000000   0.000000   0.000000
    24  I    0.000000   0.000000   0.000000   0.000000   0.000000   0.000000
    25  H    0.000000   0.000000   0.000000   0.000000   0.000000   0.000000
    26  H    0.000000   0.000000   0.000000   0.000000   0.000000   0.000000
    27  H    0.000000   0.000000   0.000000   0.000000   0.000000   0.000000
              19         20         21         22         23         24
     1  C    0.000000   0.000000   0.000000   0.000000   0.000000   0.000000
     2  C    0.000000   0.000000   0.000000   0.000000   0.000000   0.000000
     3  N    0.000000   0.000000   0.000000   0.000000   0.000000   0.000000
     4  C    0.000000   0.000000   0.000000   0.000000   0.000000   0.000000
     5  C    0.000000   0.000000   0.000000   0.000000   0.000000   0.000000
     6  C    0.000000   0.000000   0.000000   0.000000   0.000000   0.000000
     7  C    0.000000   0.000000   0.000000   0.000000   0.000000   0.000000
     8  H    0.000000   0.000000   0.000000   0.000000   0.000000   0.000000
     9  H    0.000000   0.000000   0.000000   0.000000   0.000000   0.000000
    10  H    0.000000   0.000000   0.000000   0.000000   0.000000   0.000000
    11  H    0.000000   0.000000   0.000000   0.000000   0.000000   0.000000
    12  H    0.000000   0.000000   0.000000   0.000000   0.000000   0.000000
    13  H    0.000000   0.000000   0.000000   0.000000   0.000000   0.000000
    14  H    0.000000   0.000000   0.000000   0.000000   0.000000   0.000000
    15  H    0.000000   0.000000   0.000000   0.000000   0.000000   0.000000
    16  H    0.000000   0.000000   0.000000   0.000000   0.000000   0.000000
    17  H    0.000000   0.000000   0.000000   0.000000   0.000000   0.000000
    18  H    0.000000   0.000000   0.000000   0.000000   0.000000   0.000000
    19  H    0.867272   0.000000   0.000000   0.000000   0.000000   0.000000
    20  H    0.000000   0.838613   0.000000   0.000000   0.000000   0.000000
    21  H    0.000000   0.000000   0.845150   0.000000   0.000000   0.000000
    22  H    0.000000   0.000000   0.000000   0.829930   0.000000   0.000000
    23  C    0.000000   0.000000   0.000000   0.000000   4.022151   0.000000
    24  I    0.000000   0.000000   0.000000   0.000000   0.000000   7.701062
    25  H    0.000000   0.000000   0.000000   0.000000   0.000000   0.000000
    26  H    0.000000   0.000000   0.000000   0.000000   0.000000   0.000000
    27  H    0.000000   0.000000   0.000000   0.000000   0.000000   0.000000
              25         26         27
     1  C    0.000000   0.000000   0.000000
     2  C    0.000000   0.000000   0.000000
     3  N    0.000000   0.000000   0.000000
     4  C    0.000000   0.000000   0.000000
     5  C    0.000000   0.000000   0.000000
     6  C    0.000000   0.000000   0.000000
     7  C    0.000000   0.000000   0.000000
     8  H    0.000000   0.000000   0.000000
     9  H    0.000000   0.000000   0.000000
    10  H    0.000000   0.000000   0.000000
    11  H    0.000000   0.000000   0.000000
    12  H    0.000000   0.000000   0.000000
    13  H    0.000000   0.000000   0.000000
    14  H    0.000000   0.000000   0.000000
    15  H    0.000000   0.000000   0.000000
    16  H    0.000000   0.000000   0.000000
    17  H    0.000000   0.000000   0.000000
    18  H    0.000000   0.000000   0.000000
    19  H    0.000000   0.000000   0.000000
    20  H    0.000000   0.000000   0.000000
    21  H    0.000000   0.000000   0.000000
    22  H    0.000000   0.000000   0.000000
    23  C    0.000000   0.000000   0.000000
    24  I    0.000000   0.000000   0.000000
    25  H    0.846735   0.000000   0.000000
    26  H    0.000000   0.853203   0.000000
    27  H    0.000000   0.000000   0.848566
 Mulliken charges:
               1
     1  C   -0.455332
     2  C   -0.119384
     3  N   -0.316085
     4  C   -0.129428
     5  C   -0.457147
     6  C   -0.125171
     7  C   -0.455234
     8  H    0.162790
     9  H    0.157146
    10  H    0.169000
    11  H    0.148655
    12  H    0.136325
    13  H    0.133683
    14  H    0.154120
    15  H    0.174808
    16  H    0.156750
    17  H    0.160930
    18  H    0.156257
    19  H    0.132728
    20  H    0.161387
    21  H    0.154850
    22  H    0.170070
    23  C   -0.022151
    24  I   -0.701062
    25  H    0.153265
    26  H    0.146797
    27  H    0.151434
 Sum of Mulliken charges =   0.00000
 Mulliken charges with hydrogens summed into heavy atoms:
               1
     1  C    0.033603
     2  C    0.165596
     3  N   -0.316085
     4  C    0.158375
     5  C    0.035341
     6  C    0.163813
     7  C    0.031073
    23  C    0.429345
    24  I   -0.701062
 APT charges:
               1
     1  C   -0.588451
     2  C   -0.180451
     3  N   -0.746717
     4  C   -0.155599
     5  C   -0.602711
     6  C   -0.150832
     7  C   -0.608768
     8  H    0.194992
     9  H    0.195254
    10  H    0.190806
    11  H    0.147941
    12  H    0.120528
    13  H    0.116644
    14  H    0.146610
    15  H    0.194912
    16  H    0.193531
    17  H    0.201683
    18  H    0.144208
    19  H    0.113777
    20  H    0.203035
    21  H    0.194714
    22  H    0.193554
    23  C    1.658748
    24  I   -1.250393
    25  H    0.023336
    26  H    0.020766
    27  H    0.028874
 Sum of APT charges =  -0.00001
 APT charges with hydrogens summed into heavy atoms:
               1
     1  C   -0.007398
     2  C    0.088018
     3  N   -0.746717
     4  C    0.107655
     5  C   -0.012585
     6  C    0.107152
     7  C   -0.017465
    23  C    1.731724
    24  I   -1.250393
 Charge=              0.0000 electrons
 Dipole moment (field-independent basis, Debye):
    X=            -13.2705    Y=              0.5484    Z=             -0.5030  Tot=             13.2914
 N-N= 3.231457745991D+02 E-N=-5.207318470544D+02  KE=-8.845481898583D+01
  Exact polarizability: 176.778  -3.766  61.768   3.290  -0.160  56.005
 Approx polarizability: 102.788  -2.292  41.511   2.075  -0.060  39.906
 Leave Link  601 at Sat Dec 13 14:32:57 2025, MaxMem=   536870912 cpu:               0.0 elap:               0.1
 (Enter D:\G16W\l701.exe)
 ... and contract with generalized density number  0.
 Compute integral second derivatives.
 R6Disp: Adding PM7 dispersion energy 2nd derivatives to the Hessian.
 Leave Link  701 at Sat Dec 13 14:32:58 2025, MaxMem=   536870912 cpu:               1.0 elap:               0.2
 (Enter D:\G16W\l702.exe)
 L702 exits ... SP integral derivatives will be done elsewhere.
 Leave Link  702 at Sat Dec 13 14:32:58 2025, MaxMem=   536870912 cpu:               0.0 elap:               0.1
 (Enter D:\G16W\l703.exe)
 Integral derivatives from FoFJK, PRISM(SPDF).
 Compute integral second derivatives, UseDBF=F ICtDFT=           0.
 Calling FoFJK, ICntrl=    100127 FMM=F ISym2X=0 I1Cent= 0 IOpClX= 0 NMat=1 NMatS=1 NMatT=0.
 FoFJK:  IHMeth=43 ICntrl=  100127 DoSepK=F KAlg= 0 I1Cent=           0 FoldK=F
 IRaf=         0 NMat=       1 IRICut=       1 DoRegI=T DoRafI=F ISym2E= 0 IDoP0=3 IntGTp=3.
 FoFCou: FMM=F IPFlag=           0 FMFlag=      100000 FMFlg1=         800
         NFxFlg=           0 DoJE=F BraDBF=F KetDBF=F FulRan=T
         wScrn=  0.000000 ICntrl=    100127 IOpCl=  0 I1Cent=           0 NGrid=           0
         NMat0=    1 NMatS0=      1 NMatT0=    0 NMatD0=    1 NMtDS0=    0 NMtDT0=    0
 Symmetry not used in FoFCou.
 Leave Link  703 at Sat Dec 13 14:32:58 2025, MaxMem=   536870912 cpu:               0.0 elap:               0.2
 (Enter D:\G16W\l716.exe)
 Dipole        =-5.22102056D+00 2.15752274D-01-1.97897801D-01
 Polarizability= 1.76777502D+02-3.76617909D+00 6.17680113D+01
                 3.29032600D+00-1.59717415D-01 5.60051462D+01
 HyperPolar    =-5.59015189D+03 2.06536343D+02-6.03759359D+01
                 1.53102892D+01-1.62372924D+02 9.58175019D+00
                -1.44310029D+01-6.39566979D+01 7.31314305D+00
                -1.71845113D+01
 ***** Axes restored to original set *****
 -------------------------------------------------------------------
 Center     Atomic                   Forces (Hartrees/Bohr)
 Number     Number              X              Y              Z
 -------------------------------------------------------------------
      1        6          -0.000016986    0.000031105    0.000052880
      2        6          -0.000003060    0.000014846    0.000049852
      3        7           0.002317789   -0.000137322   -0.000128626
      4        6          -0.000026134   -0.000033441   -0.000002814
      5        6          -0.000029766   -0.000025804   -0.000011441
      6        6          -0.000003915    0.000045922   -0.000024646
      7        6          -0.000015778    0.000016429   -0.000038933
      8        1          -0.000002011   -0.000012638    0.000002813
      9        1           0.000001623   -0.000010205    0.000008111
     10        1          -0.000004019    0.000013540    0.000023046
     11        1           0.000010842   -0.000006336    0.000010190
     12        1           0.000017014    0.000008054    0.000008478
     13        1           0.000019917   -0.000010328   -0.000004394
     14        1          -0.000000677   -0.000009038   -0.000016754
     15        1           0.000000056   -0.000005834    0.000003164
     16        1           0.000004015   -0.000011483   -0.000000400
     17        1           0.000005443   -0.000003358   -0.000000997
     18        1          -0.000000570    0.000004177   -0.000019187
     19        1           0.000009469    0.000003577   -0.000013020
     20        1          -0.000000227   -0.000002727    0.000005094
     21        1           0.000008437    0.000008207    0.000001254
     22        1          -0.000004191    0.000010648   -0.000005417
     23        6          -0.002359069    0.000097139    0.000074583
     24       53           0.000155161   -0.000001939   -0.000002743
     25        1          -0.000026593   -0.000004563    0.000013419
     26        1          -0.000032372   -0.000002005   -0.000002711
     27        1          -0.000024400    0.000023375    0.000019198
 -------------------------------------------------------------------
 Cartesian Forces:  Max     0.002359069 RMS     0.000369087
 FormGI is forming the generalized inverse of G from B-inverse, IUseBI=4.
 Leave Link  716 at Sat Dec 13 14:32:58 2025, MaxMem=   536870912 cpu:               0.0 elap:               0.2
 (Enter D:\G16W\l103.exe)

 GradGradGradGradGradGradGradGradGradGradGradGradGradGradGradGradGradGrad
 Berny optimization.
 Red2BG is reusing G-inverse.
 Internal  Forces:  Max     0.002132822 RMS     0.000177016
 Search for a saddle point.
 Step number   1 out of a maximum of  162
 All quantities printed in internal units (Hartrees-Bohrs-Radians)
 Swapping is turned off.
 Second derivative matrix not updated -- analytic derivatives used.
 ITU=  0
     Eigenvalues ---   -0.04331   0.00030   0.00079   0.00098   0.00164
     Eigenvalues ---    0.00226   0.00290   0.00437   0.00887   0.01237
     Eigenvalues ---    0.01535   0.02020   0.02225   0.02648   0.03019
     Eigenvalues ---    0.03198   0.03213   0.03255   0.03566   0.03650
     Eigenvalues ---    0.03690   0.03783   0.03822   0.03834   0.03891
     Eigenvalues ---    0.04006   0.04321   0.04667   0.05032   0.05205
     Eigenvalues ---    0.05461   0.07379   0.07447   0.07687   0.08235
     Eigenvalues ---    0.08800   0.09340   0.10029   0.11303   0.11351
     Eigenvalues ---    0.11456   0.11901   0.12901   0.12980   0.13045
     Eigenvalues ---    0.13299   0.13634   0.14047   0.16200   0.19437
     Eigenvalues ---    0.22100   0.23276   0.23360   0.23897   0.24202
     Eigenvalues ---    0.24711   0.24786   0.24849   0.25027   0.25369
     Eigenvalues ---    0.25430   0.25484   0.25623   0.25634   0.27280
     Eigenvalues ---    0.27600   0.27749   0.29289   0.31162   0.33597
     Eigenvalues ---    0.35491   0.38006   0.40260   0.44184   0.49314
 Eigenvectors required to have negative eigenvalues:
                          R10       R24       D71       D70       A44
   1                    0.64365  -0.46765   0.33019  -0.29963  -0.19046
                          A45       A46       A53       R30       A43
   1                   -0.18534  -0.17865   0.11399  -0.09843   0.08145
 RFO step:  Lambda0=5.217498769D-05 Lambda=-3.36572473D-05.
 Linear search not attempted -- option 19 set.
 Iteration  1 RMS(Cart)=  0.00234530 RMS(Int)=  0.00001637
 Iteration  2 RMS(Cart)=  0.00000968 RMS(Int)=  0.00001409
 Iteration  3 RMS(Cart)=  0.00000000 RMS(Int)=  0.00001409
 ITry= 1 IFail=0 DXMaxC= 1.57D-02 DCOld= 1.00D+10 DXMaxT= 3.00D-01 DXLimC= 3.00D+00 Rises=F
 Variable       Old X    -DE/DX   Delta X   Delta X   Delta X     New X
                                 (Linear)    (Quad)   (Total)
    R1        2.88758   0.00008   0.00000  -0.00015  -0.00015   2.88743
    R2        2.07155  -0.00001   0.00000   0.00005   0.00005   2.07160
    R3        2.07616   0.00001   0.00000   0.00017   0.00017   2.07633
    R4        2.07706   0.00000   0.00000   0.00016   0.00016   2.07722
    R5        2.83774   0.00014   0.00000   0.00015   0.00015   2.83789
    R6        2.10721   0.00001   0.00000   0.00015   0.00015   2.10736
    R7        2.10294   0.00002   0.00000   0.00018   0.00018   2.10313
    R8        2.85130   0.00010   0.00000   0.00001   0.00001   2.85131
    R9        2.84575   0.00004   0.00000   0.00007   0.00006   2.84582
   R10        3.62827   0.00213   0.00000  -0.00708  -0.00707   3.62120
   R11        2.88666   0.00004   0.00000  -0.00020  -0.00020   2.88645
   R12        2.10190   0.00002   0.00000   0.00016   0.00016   2.10206
   R13        2.10747   0.00002   0.00000   0.00021   0.00021   2.10768
   R14        2.07960   0.00000   0.00000   0.00018   0.00018   2.07978
   R15        2.07174   0.00000   0.00000   0.00001   0.00001   2.07175
   R16        2.07669   0.00001   0.00000   0.00019   0.00019   2.07688
   R17        2.88371   0.00001   0.00000  -0.00024  -0.00024   2.88346
   R18        2.11015   0.00002   0.00000   0.00021   0.00021   2.11036
   R19        2.10376   0.00001   0.00000   0.00010   0.00010   2.10385
   R20        2.07836  -0.00001   0.00000   0.00014   0.00014   2.07851
   R21        2.07116   0.00001   0.00000   0.00006   0.00006   2.07122
   R22        2.07734   0.00015   0.00000   0.00017   0.00016   2.07751
   R23        3.75303   0.00012   0.00000   0.00203   0.00204   3.75506
   R24        4.97839  -0.00010   0.00000   0.02834   0.02835   5.00674
   R25        2.04653   0.00003   0.00000   0.00000   0.00001   2.04653
   R26        2.04666   0.00001   0.00000  -0.00003  -0.00002   2.04663
   R27        2.04570   0.00005   0.00000   0.00005   0.00007   2.04577
   R28        5.27069  -0.00004   0.00000   0.01110   0.01110   5.28179
   R29        5.27486  -0.00003   0.00000   0.01224   0.01223   5.28709
   R30        5.27613   0.00002   0.00000   0.01115   0.01115   5.28728
    A1        1.97273   0.00000   0.00000   0.00027   0.00027   1.97299
    A2        1.92595  -0.00001   0.00000  -0.00016  -0.00016   1.92579
    A3        1.96071   0.00003   0.00000   0.00060   0.00060   1.96131
    A4        1.86643   0.00001   0.00000  -0.00015  -0.00015   1.86627
    A5        1.87038  -0.00001   0.00000  -0.00005  -0.00005   1.87033
    A6        1.86163  -0.00002   0.00000  -0.00058  -0.00058   1.86104
    A7        1.97670   0.00010   0.00000   0.00095   0.00095   1.97765
    A8        1.89139  -0.00004   0.00000   0.00017   0.00017   1.89155
    A9        1.91635  -0.00003   0.00000  -0.00009  -0.00009   1.91627
   A10        1.91102  -0.00002   0.00000  -0.00031  -0.00031   1.91071
   A11        1.92149  -0.00002   0.00000  -0.00081  -0.00081   1.92068
   A12        1.84177   0.00001   0.00000   0.00003   0.00003   1.84180
   A13        1.91843  -0.00003   0.00000   0.00122   0.00122   1.91965
   A14        1.94695   0.00008   0.00000   0.00120   0.00120   1.94815
   A15        1.98142   0.00000   0.00000  -0.00186  -0.00186   1.97956
   A16        1.87005   0.00002   0.00000   0.00102   0.00102   1.87107
   A17        1.86775   0.00007   0.00000  -0.00075  -0.00075   1.86700
   A18        1.87415  -0.00014   0.00000  -0.00079  -0.00079   1.87336
   A19        1.97153   0.00007   0.00000   0.00049   0.00049   1.97201
   A20        1.92271  -0.00001   0.00000  -0.00068  -0.00068   1.92203
   A21        1.88967  -0.00002   0.00000   0.00014   0.00014   1.88982
   A22        1.91875  -0.00002   0.00000   0.00010   0.00010   1.91885
   A23        1.89990  -0.00003   0.00000   0.00000   0.00000   1.89990
   A24        1.85738   0.00001   0.00000  -0.00007  -0.00007   1.85730
   A25        1.95901   0.00001   0.00000   0.00041   0.00041   1.95942
   A26        1.97525   0.00001   0.00000   0.00035   0.00035   1.97560
   A27        1.92776  -0.00001   0.00000  -0.00014  -0.00014   1.92762
   A28        1.86928  -0.00001   0.00000   0.00010   0.00010   1.86937
   A29        1.85935   0.00000   0.00000  -0.00043  -0.00043   1.85892
   A30        1.86693  -0.00001   0.00000  -0.00036  -0.00036   1.86657
   A31        1.99049  -0.00006   0.00000   0.00022   0.00021   1.99070
   A32        1.87290   0.00005   0.00000   0.00037   0.00037   1.87328
   A33        1.92438   0.00000   0.00000  -0.00070  -0.00069   1.92369
   A34        1.90143  -0.00004   0.00000  -0.00001  -0.00001   1.90142
   A35        1.90773   0.00007   0.00000   0.00024   0.00024   1.90797
   A36        1.86219  -0.00001   0.00000  -0.00013  -0.00013   1.86205
   A37        1.92386  -0.00001   0.00000  -0.00007  -0.00006   1.92380
   A38        1.96712  -0.00003   0.00000   0.00028   0.00028   1.96741
   A39        1.96383   0.00009   0.00000   0.00038   0.00037   1.96421
   A40        1.86427   0.00000   0.00000  -0.00032  -0.00032   1.86395
   A41        1.85768  -0.00005   0.00000  -0.00044  -0.00043   1.85725
   A42        1.88108  -0.00001   0.00000   0.00010   0.00010   1.88117
   A43        2.03452   0.00030   0.00000  -0.00001  -0.00001   2.03452
   A44        1.62744   0.00007   0.00000   0.00772   0.00772   1.63516
   A45        1.61868   0.00003   0.00000   0.00751   0.00750   1.62619
   A46        1.63689  -0.00020   0.00000   0.00753   0.00753   1.64442
   A47        2.09537   0.00000   0.00000  -0.00152  -0.00162   2.09375
   A48        2.08525   0.00000   0.00000  -0.00158  -0.00168   2.08357
   A49        2.08582   0.00002   0.00000  -0.00136  -0.00145   2.08437
   A50        0.68583   0.00001   0.00000  -0.00190  -0.00191   0.68392
   A51        0.68349   0.00001   0.00000  -0.00182  -0.00183   0.68166
   A52        0.68335   0.00002   0.00000  -0.00185  -0.00187   0.68149
   A53        2.33830   0.00001   0.00000  -0.00820  -0.00820   2.33009
   A54        2.46211   0.00005   0.00000  -0.00297  -0.00296   2.45914
   A55        3.14850  -0.00003   0.00000  -0.00028  -0.00027   3.14823
   A56        3.15069  -0.00016   0.00000  -0.00019  -0.00019   3.15051
    D1       -0.93583   0.00000   0.00000   0.00044   0.00044  -0.93539
    D2       -3.05982  -0.00001   0.00000   0.00008   0.00008  -3.05974
    D3        1.21990   0.00001   0.00000   0.00000   0.00000   1.21990
    D4       -3.02480   0.00000   0.00000   0.00056   0.00056  -3.02423
    D5        1.13440  -0.00001   0.00000   0.00021   0.00021   1.13461
    D6       -0.86907   0.00001   0.00000   0.00013   0.00013  -0.86894
    D7        1.18344   0.00000   0.00000   0.00101   0.00101   1.18445
    D8       -0.94055  -0.00001   0.00000   0.00066   0.00066  -0.93989
    D9       -2.94402   0.00002   0.00000   0.00058   0.00058  -2.94344
   D10       -2.51270   0.00000   0.00000   0.00174   0.00174  -2.51097
   D11        1.69875  -0.00005   0.00000  -0.00108  -0.00109   1.69766
   D12       -0.42154   0.00007   0.00000   0.00041   0.00041  -0.42113
   D13       -0.39975   0.00001   0.00000   0.00237   0.00237  -0.39738
   D14       -2.47149  -0.00005   0.00000  -0.00045  -0.00045  -2.47194
   D15        1.69141   0.00007   0.00000   0.00104   0.00104   1.69245
   D16        1.61758  -0.00001   0.00000   0.00177   0.00177   1.61935
   D17       -0.45416  -0.00006   0.00000  -0.00105  -0.00105  -0.45521
   D18       -2.57445   0.00006   0.00000   0.00044   0.00044  -2.57400
   D19        1.22537  -0.00001   0.00000  -0.00105  -0.00105   1.22432
   D20       -0.92787  -0.00002   0.00000  -0.00101  -0.00101  -0.92888
   D21       -2.95242  -0.00002   0.00000  -0.00064  -0.00064  -2.95306
   D22       -2.93937   0.00008   0.00000   0.00175   0.00175  -2.93762
   D23        1.19058   0.00007   0.00000   0.00178   0.00178   1.19236
   D24       -0.83397   0.00008   0.00000   0.00216   0.00216  -0.83181
   D25       -0.93366  -0.00004   0.00000   0.00096   0.00096  -0.93270
   D26       -3.08689  -0.00005   0.00000   0.00100   0.00100  -3.08590
   D27        1.17174  -0.00004   0.00000   0.00137   0.00137   1.17311
   D28       -0.99244  -0.00006   0.00000  -0.00028  -0.00028  -0.99272
[...]
 0.00001809,-0.00001080,-0.00001428,-0.00003798,0.00001705,-0.00054263,
 -0.00099988,-0.00031181,0.00063846,-0.00074567,0.00012670,0.03538595,0
 .13672623,-0.00004491,-0.00012226,0.00001907,-0.00002912,-0.00003621,0
 .00003836,-0.00007571,-0.00135714,-0.00035113,-0.00019895,-0.00014197,
 0.00024012,0.00000316,-0.00016010,-0.00003460,-0.00076206,0.00399280,0
 .00493033,0.03528720,0.08091216,-0.13512014,0.00005830,0.00010780,-0.0
 0009045,0.00002342,0.00005735,-0.00004409,-0.00000269,0.00000981,-0.00
 002595,-0.00000322,-0.00000355,0.00000112,-0.00003565,0.00008175,-0.00
 005789,-0.00004398,0.00003109,0.00000526,0.00003581,0.00001772,0.00008
 971,0.00000244,0.00002341,0.00000032,0.00000755,0.00003404,0.00001147,
 0.00000256,-0.00000665,0.00000177,0.00004587,-0.00056553,0.00056727,-0
 .00021824,-0.00002595,0.00039875,-0.04456256,-0.09920464,0.15801884,-0
 .00043727,-0.00006062,-0.00013067,0.00014622,-0.00017498,0.00016741,-0
 .00005384,-0.00026654,0.00008963,-0.00009168,-0.00003654,-0.00007446,-
 0.00004849,0.00008084,-0.00002453,0.00395773,-0.00344799,-0.00128824,-
 0.09071246,-0.02445586,-0.07784759,-0.00028407,-0.00043646,0.00120288,
 0.00011841,0.00001679,0.00008454,-0.00001346,-0.00008119,0.00011323,0.
 00004018,0.00002836,0.00002320,0.00012696,0.00024949,-0.00012978,0.000
 05932,0.00002376,0.00002284,0.00000750,-0.00000728,-0.00001482,0.00002
 172,-0.00002486,0.00000779,0.00001322,-0.00001649,0.00002050,0.0000052
 7,-0.00000473,0.00000664,0.00015035,0.00054457,-0.00006113,0.00049228,
 0.00045387,0.00041300,0.00588040,0.00092389,0.00041412,0.10192573,-0.0
 0005529,-0.00043129,0.00011916,-0.00008300,-0.00111491,0.00053440,0.00
 025024,-0.00008681,-0.00006024,0.00012792,-0.00003313,-0.00010953,-0.0
 0000962,0.00020950,0.00005297,-0.01259186,-0.02216516,-0.02824704,-0.0
 2314460,-0.04812512,-0.03458405,-0.00050443,0.00021424,0.00070658,-0.0
 0000179,0.00004583,0.00012562,-0.00004934,-0.00000782,0.00008726,0.000
 04428,-0.00006900,0.00005390,0.00074864,-0.00081529,0.00058622,0.00003
 170,-0.00001912,-0.00002478,-0.00001233,0.00000512,-0.00003417,-0.0000
 1046,-0.00003727,-0.00000541,-0.00000547,-0.00004474,0.00001630,0.0000
 1145,-0.00002961,-0.00001905,0.00057678,-0.00255404,-0.00099206,0.0000
 7692,0.00001454,-0.00056771,0.00500314,0.00469868,0.01121148,0.0301347
 7,0.06549676,-0.00040460,-0.00017320,-0.00043364,0.00020507,0.00057780
 ,0.00032637,-0.00015245,0.00028127,0.00009375,0.00005508,0.00009215,-0
 .00032890,-0.00003296,0.00004334,-0.00009047,-0.00559572,-0.01639472,-
 0.01058587,-0.07623319,-0.03640025,-0.14969092,0.00083351,0.00017497,-
 0.00043280,0.00009130,0.00022636,-0.00021519,0.00014587,0.00006458,-0.
 00004374,-0.00004654,0.00004780,-0.00005639,-0.00035010,0.00031417,0.0
 0007178,0.00001923,-0.00003095,0.00005263,-0.00000266,-0.00007411,0.00
 001673,0.00001475,0.00000268,0.00001802,0.00001238,0.00001865,0.000055
 14,0.00000676,0.00001662,0.00001350,-0.00010243,-0.00078112,-0.0002066
 9,0.00033430,-0.00042674,-0.00021858,-0.01032710,0.00214032,-0.0236464
 2,0.09607559,0.05022058,0.18162447,-0.00041011,-0.00015906,0.00009914,
 -0.00027948,-0.00017718,0.00016592,-0.00092744,0.00024635,-0.00029237,
 -0.00033796,-0.00006515,0.00019913,-0.00010339,-0.00005144,0.00000173,
 -0.00929446,0.01501604,0.00549751,-0.19847607,0.03317579,0.03342518,0.
 00040625,0.00021525,-0.00042074,0.00004972,0.00004548,-0.00005350,0.00
 013059,-0.00003742,0.00004315,0.00001926,0.00000690,-0.00001023,-0.000
 04100,0.00015578,-0.00011746,0.00000242,0.00007219,-0.00000043,0.00007
 030,0.00002351,0.00000418,0.00006626,-0.00002528,-0.00000115,0.0000282
 9,-0.00000260,-0.00000577,0.00001212,-0.00002314,0.00000167,0.00055559
 ,0.00005639,0.00037735,-0.00014793,0.00025560,0.00023381,-0.01186344,-
 0.00313761,0.00958855,-0.02098624,0.00047175,-0.00458552,0.23951592,-0
 .00005790,-0.00017371,-0.00026913,0.00014756,0.00007641,0.00009958,0.0
 0087843,-0.00009822,0.00023964,0.00001804,-0.00001550,-0.00017622,-0.0
 0006261,0.00020772,0.00003598,0.02987896,-0.01972766,-0.01082958,0.031
 51054,-0.04334796,-0.00697495,0.00001873,0.00021163,0.00052419,0.00000
 511,0.00003281,0.00006356,0.00000405,-0.00000709,0.00011226,0.00003256
 ,-0.00002025,0.00001885,0.00008760,-0.00005400,0.00005290,0.00003173,0
 .00001222,-0.00000821,0.00001718,-0.00000889,-0.00003881,0.00000068,-0
 .00004683,-0.00000285,0.00001063,-0.00004208,0.00001839,0.00001840,-0.
 00002521,-0.00001112,0.00036184,-0.00006416,-0.00044963,0.00045115,-0.
 00256889,-0.00112707,-0.01176189,0.00391055,0.00510096,-0.00323497,0.0
 0488802,0.00003183,-0.04576656,0.05848226,0.00014117,-0.00036367,0.000
 26858,-0.00004081,0.00011892,0.00011860,-0.00039630,0.00032811,0.00002
 913,0.00008840,0.00008950,-0.00020692,0.00000644,-0.00003293,-0.000051
 18,0.00925385,-0.00802651,0.00014286,0.03251287,-0.00757603,-0.0444111
 0,-0.00009017,0.00039918,-0.00110487,-0.00004352,0.00006980,-0.0001637
 4,0.00004539,0.00014662,-0.00014235,-0.00005403,0.00001060,-0.00008389
 ,-0.00009869,0.00005929,-0.00000523,-0.00000706,-0.00002552,0.00001813
 ,0.00002253,-0.00006045,0.00004770,-0.00000671,0.00001795,0.00001351,-
 0.00000294,0.00002845,0.00002086,-0.00000006,0.00001614,0.00000381,0.0
 0046611,-0.00066245,-0.00022907,0.00023141,-0.00085998,0.00011683,0.02
 044678,0.00208198,-0.00491727,-0.01901880,0.00091653,0.00364384,-0.044
 12684,0.01283665,0.04649782,-0.00539949,0.00210399,0.00391716,0.008771
 93,-0.00519908,-0.01571465,0.07742641,-0.00477749,-0.00065710,0.006701
 46,0.01380895,0.00116088,-0.00448074,-0.00520751,0.00067442,0.00437442
 ,-0.01264288,0.00640661,-0.00258151,0.00608746,-0.00151991,0.00086426,
 -0.00220591,-0.00155082,0.00020176,-0.00058370,-0.00153473,0.00265663,
 0.00024311,-0.00291600,-0.00079926,0.00200803,-0.00053079,0.00010781,0
 .00038668,0.00320871,-0.00026076,-0.00319176,-0.00100464,0.00001694,0.
 00182117,0.00329545,0.00365676,0.00223025,0.00044002,0.00021154,0.0020
 1199,-0.00099450,0.00028360,0.00156979,0.00012607,0.00033003,-0.001146
 05,0.00455556,0.00017881,0.00250531,-0.00203188,0.00012723,-0.00137255
 ,0.00084336,-0.00057244,-0.00186959,0.00017082,0.00265366,-0.00261998,
 0.00066675,-0.13778073,-0.00103377,0.00035533,-0.00144365,-0.00216242,
 0.00099938,0.00034499,-0.00440570,-0.02477255,-0.00002263,0.00999934,-
 0.00241084,-0.00165620,0.00264668,-0.00194278,0.00005352,-0.00802938,0
 .00093463,0.00159465,-0.00164204,-0.00128020,0.00063824,-0.00027310,-0
 .00022393,-0.00021991,-0.00005128,-0.00004764,0.00009929,-0.00011183,-
 0.00000386,0.00005027,-0.00003113,-0.00026468,0.00006316,-0.00013139,-
 0.00005231,-0.00037750,0.00009929,-0.00100535,-0.00046743,0.00027426,-
 0.00022281,-0.00011890,-0.00003883,-0.00170335,-0.00021674,-0.00007008
 ,-0.00016477,-0.00005186,0.00007028,0.00000842,-0.00004468,-0.00019149
 ,0.00003741,-0.00018583,-0.00012456,-0.00080300,0.00074457,-0.00001039
 ,0.00013766,-0.00007273,0.00008083,0.00011399,0.00006351,-0.00096157,-
 0.00116017,0.00045148,0.02476774,0.42928946,-0.00244641,-0.00142418,-0
 .00181443,-0.00944376,0.00030667,0.00107357,-0.00340692,-0.00016387,-0
 .02564628,0.00365009,-0.00137334,0.00052161,-0.00010285,0.00062548,0.0
 0084451,0.00738693,0.00115542,-0.00105296,0.00057007,0.00005039,0.0005
 1489,-0.00027390,-0.00003922,-0.00033119,-0.00010020,0.00009837,0.0001
 0394,-0.00059007,-0.00028872,-0.00156122,-0.00009736,-0.00033173,-0.00
 024335,-0.00031264,0.00009183,-0.00116181,0.00006145,-0.00030730,-0.00
 008535,0.00029993,-0.00027839,-0.00033174,-0.00029413,0.00010691,-0.00
 001502,0.00004175,-0.00010362,-0.00008190,-0.00002738,-0.00004130,-0.0
 0008183,0.00057022,0.00025829,-0.00071578,0.00019655,0.00060775,-0.000
 50611,-0.00003022,-0.00000141,-0.00007472,0.00003389,0.00007158,-0.000
 15047,-0.00024170,0.00006133,-0.00011202,0.02224309,-0.00058520,0.4298
 2782,0.00022658,-0.00113253,-0.00264913,-0.00383418,0.00126994,0.00330
 052,-0.02590552,0.00124592,0.00043017,-0.00341986,-0.00235819,0.000288
 92,0.00042893,0.00287024,-0.00008045,-0.00310781,0.00255191,-0.0006230
 8,-0.00010129,-0.00256713,0.00087734,0.00000597,0.00087428,0.00056507,
 -0.00004408,0.00023077,0.00052944,-0.00055810,-0.00016006,0.00113008,0
 .00042819,-0.00058928,0.00013341,0.00007697,-0.00015520,-0.00081591,0.
 00012541,0.00077267,0.00016972,0.00018640,-0.00044465,-0.00101068,-0.0
 0095101,-0.00096444,-0.00021215,0.00020672,-0.00081657,0.00036618,-0.0
 0003930,-0.00056861,0.00001041,0.00004023,0.00017070,-0.00126798,0.000
 01236,-0.00064180,0.00044869,0.00008199,0.00051514,-0.00025864,0.00034
 591,0.00068502,-0.00012372,-0.00066387,0.00094915,-0.00024051,0.062264
 80,-0.00306475,-0.00253561,0.04343241,-0.00016862,0.00033157,-0.000030
 87,0.00022325,0.00004860,-0.00021021,0.00114798,0.00138619,-0.00002063
 ,-0.00010189,-0.00005404,0.00000260,0.00049954,-0.00007253,0.00006330,
 0.00031717,-0.00022158,0.00008796,-0.00033589,0.00020309,-0.00004620,0
 .00015020,-0.00015935,0.00003929,0.00001598,-0.00005249,-0.00001100,0.
 00003927,-0.00016897,0.00001044,-0.00004428,-0.00007514,0.00001475,-0.
 00000663,-0.00003183,0.00006402,-0.00001082,0.00005012,0.00004015,-0.0
 0010342,-0.00001200,0.00004680,-0.00033032,0.00005224,0.00001972,-0.00
 015910,0.00003179,-0.00005583,-0.00008148,0.00000159,-0.00004133,0.000
 05019,-0.00007316,0.00003305,0.00001102,0.00006542,-0.00007896,0.00007
 948,-0.00003471,0.00004405,0.00005736,-0.00003183,-0.00001562,0.000275
 03,-0.00009204,-0.00000778,-0.00277260,-0.00584356,0.00013228,-0.00160
 514,0.00541850,-0.00049577,-0.00008790,0.00022160,0.00042882,-0.000162
 05,-0.00030848,0.00127844,-0.00004313,0.00135373,0.00015322,0.00006486
 ,0.00011671,-0.00001416,-0.00005289,0.00027490,0.00009484,-0.00000742,
 0.00012250,0.00010410,0.00008613,0.00021306,0.00014739,0.00005511,-0.0
 0010812,0.00006013,0.00001403,-0.00006520,0.00036110,0.00002448,-0.000
 07507,0.00004616,0.00007065,-0.00000918,0.00002971,0.00001181,0.000108
 53,-0.00001172,-0.00000436,-0.00001313,-0.00013915,0.00003338,-0.00006
 916,0.00001591,0.00003025,-0.00015700,0.00004645,0.00000237,-0.0001418
 8,-0.00001155,0.00001394,-0.00005227,-0.00020132,-0.00002229,-0.000045
 45,-0.00000899,-0.00001847,0.00001000,-0.00004931,-0.00001280,-0.00005
 886,-0.00003218,-0.00003506,-0.00008325,-0.00001246,-0.00005399,-0.000
 12753,-0.00331624,0.00018073,-0.00585203,-0.00151720,0.00003847,0.0055
 0812,-0.00038649,-0.00061853,-0.00074318,-0.00215407,-0.00001955,0.000
 29409,-0.02527348,-0.00855457,0.01310157,-0.00172612,-0.00015467,0.000
 62358,-0.00072645,0.00134873,0.00009567,-0.00272952,0.00072497,0.00014
 500,0.00014807,-0.00024400,0.00000925,-0.00004540,0.00000232,0.0000288
 6,-0.00005693,-0.00003528,0.00005592,-0.00005713,-0.00033621,-0.000738
 52,-0.00017315,-0.00010603,-0.00000513,-0.00005387,-0.00003057,-0.0002
 1393,-0.00001829,0.00023972,0.00011399,-0.00003843,-0.00011049,-0.0001
 2431,0.00010625,0.00064319,0.00025226,-0.00028894,0.00032069,-0.000085
 90,-0.00002679,-0.00001933,-0.00000185,-0.00009349,0.00009856,-0.00031
 341,-0.00006295,-0.00046969,0.00042828,0.00000808,0.00008953,-0.000049
 56,0.00001072,0.00009295,0.00002334,-0.00011127,0.00011919,-0.00001650
 ,-0.00521173,-0.00737040,0.00556151,-0.02353700,0.00626759,-0.00527322
 ,0.05385366,-0.00034381,-0.00059407,-0.00006297,-0.00031756,-0.0002441
 1,-0.00013366,-0.00457272,0.00029819,0.00203193,0.00069310,0.00032138,
 -0.00014986,0.00042300,-0.00064431,0.00018411,0.00028930,-0.00012926,-
 0.00000976,-0.00005508,-0.00001667,-0.00000994,-0.00019829,-0.00016041
 ,-0.00010375,-0.00001680,0.00001502,-0.00009491,-0.00044125,0.00003109
 ,-0.00117253,0.00009503,0.00019533,-0.00003947,-0.00001719,0.00000229,
 0.00004013,0.00002716,-0.00016170,-0.00009831,0.00006728,0.00001470,-0
 .00009055,0.00013473,-0.00134341,-0.00079002,0.00069649,-0.00038212,0.
 00021917,0.00009526,-0.00015800,-0.00002431,-0.00004831,-0.00000363,0.
 00003033,0.00000739,0.00007680,-0.00004267,0.00000241,-0.00000387,-0.0
 0001730,-0.00003848,-0.00002548,0.00002324,-0.00000881,-0.00002069,0.0
 0004956,-0.00662204,-0.11127069,0.08881600,0.00417557,-0.00027083,0.00
 161863,0.00697590,0.12527041,-0.00011931,0.00012647,-0.00036367,-0.000
 29736,0.00023049,0.00042686,0.00845598,0.00231790,-0.00236667,0.000278
 81,-0.00026357,-0.00037732,0.00068057,-0.00076768,-0.00073811,-0.00014
 816,0.00001233,-0.00002829,-0.00017756,-0.00000891,-0.00009988,-0.0000
 5194,-0.00026964,0.00008233,-0.00011067,-0.00015654,-0.00004799,-0.000
 32101,-0.00045055,-0.00073996,-0.00024067,-0.00005879,0.00005754,-0.00
 005525,0.00000148,-0.00014205,0.00001961,0.00001365,0.00004131,0.00012
 379,-0.00002587,-0.00003411,0.00030223,-0.00092468,0.00023956,-0.00018
 878,0.00012651,0.00024103,0.00003126,-0.00003185,0.00006918,0.00007185
 ,0.00004479,-0.00003125,0.00001912,-0.00001695,0.00004897,0.00001027,-
 0.00001370,0.00002641,0.00001246,-0.00000924,0.00006544,0.00011008,0.0
 0004211,0.00001283,0.00454430,0.08882703,-0.14978305,-0.00278586,0.001
 42907,-0.00011683,-0.01095071,-0.10489036,0.17004874,0.00040109,-0.000
 00701,0.00014598,-0.00285039,0.00032333,0.00094096,-0.02738477,-0.0044
 1831,-0.01439841,-0.00285751,0.00103440,-0.00020311,0.00003158,0.00041
 046,-0.00010082,-0.00209553,-0.00027528,0.00005308,0.00015165,-0.00023
 053,0.00009097,-0.00007626,0.00006878,0.00004498,0.00000535,0.00004655
 ,0.00009143,-0.00011605,0.00000782,0.00009869,-0.00003953,-0.00020768,
 -0.00005268,-0.00011251,0.00001078,-0.00054344,-0.00000247,0.00013612,
 0.00004448,-0.00064608,0.00043027,0.00032217,-0.00008264,0.00017688,-0
 .00008532,-0.00002040,-0.00008551,0.00002438,-0.00003309,-0.00003908,-
 0.00001974,-0.00052256,-0.00033342,0.00034457,-0.00002052,-0.00016191,
 0.00013914,-0.00001304,0.00004731,-0.00002983,0.00000396,0.00009205,-0
 .00002674,-0.00012761,0.00006267,-0.00003690,-0.00821644,-0.00865721,-
 0.01966559,-0.02207638,0.00379071,0.00853789,0.00431872,0.00036891,0.0
 0065608,0.05801891,-0.00002653,0.00003357,-0.00006755,0.00030798,-0.00
 006110,-0.00007921,-0.00196585,0.00133340,-0.00069533,0.00106885,-0.00
 005592,0.00013653,-0.00025257,-0.00011431,-0.00029273,-0.00050060,-0.0
 0029989,-0.00005605,0.00018450,0.00008136,0.00014728,-0.00000471,0.000
 00007,-0.00003655,0.00000198,0.00000438,-0.00000655,-0.00005301,-0.000
 02586,-0.00003603,0.00001476,0.00007364,0.00002843,0.00001489,0.000023
 50,0.00004950,0.00002769,-0.00010304,-0.00008044,0.00056978,-0.0000527
 4,-0.00026159,0.00030289,-0.00065160,0.00039451,0.00004577,-0.00001784
 ,0.00012928,0.00010464,-0.00010932,0.00009034,-0.00052246,-0.00000522,
 0.00039068,-0.00001284,0.00002413,0.00005159,-0.00006851,-0.00006480,0
 .00000502,-0.00002019,-0.00002858,-0.00002717,-0.00012242,-0.00011818,
 -0.00010504,-0.00815212,-0.06262767,-0.05836678,0.00268598,0.00075840,
 -0.00146980,0.00116137,0.00738872,0.01267645,0.00781541,0.06432782,-0.
 00004566,-0.00003305,-0.00010649,0.00036400,-0.00004482,-0.00017125,-0
 .00786934,-0.00089190,-0.00148413,-0.00038308,0.00044381,-0.00003486,0
 .00002744,-0.00014877,-0.00032268,0.00032819,-0.00023516,0.00003422,0.
 00001937,0.00001956,-0.00029211,-0.00006002,-0.00002006,-0.00002930,0.
 00000383,-0.00000841,0.00001884,-0.00007730,-0.00002040,-0.00005645,-0
 .00002125,0.00002009,-0.00000935,0.00001430,-0.00001804,0.00009715,0.0
 0000846,-0.00008877,-0.00001984,0.00026393,-0.00008159,0.00021935,-0.0
 0015800,0.00047539,0.00013030,-0.00007128,0.00006375,0.00000995,0.0000
 2880,0.00004021,0.00007647,0.00037934,0.00016949,0.00009208,0.00003537
 ,0.00010624,-0.00006797,0.00004501,0.00002434,0.00005858,-0.00001035,-
 0.00001336,0.00003842,-0.00004528,-0.00001574,0.00014941,-0.01888009,-
 0.05849150,-0.19845065,0.00558003,-0.00139814,-0.00196728,-0.00228342,
 -0.00328091,-0.02092766,0.02395609,0.07017564,0.22702070,-0.00045568,-
 0.00019927,-0.00113727,-0.00172146,0.00048295,0.00061451,-0.02352519,0
 .01623214,0.00334058,-0.00281532,-0.00034480,0.00023234,0.00025477,0.0
 0003968,-0.00008426,-0.00228694,0.00054859,0.00096040,-0.00151055,-0.0
 0099978,0.00046779,-0.00037900,-0.00045323,-0.00071361,-0.00004203,0.0
 0005269,0.00001389,-0.00010124,0.00008397,-0.00030385,-0.00000294,-0.0
 0008563,-0.00000724,-0.00007415,0.00002260,-0.00026968,0.00000244,0.00
 057355,0.00023848,-0.00004954,-0.00011144,-0.00022653,-0.00012889,-0.0
 0010865,-0.00000658,-0.00003664,-0.00007158,0.00005492,0.00000548,-0.0
 0009917,0.00000902,-0.00012806,0.00011888,-0.00000643,-0.00002923,-0.0
 0013160,0.00015901,-0.00002294,-0.00000758,0.00000279,-0.00010596,-0.0
 0000982,-0.00000436,0.00026001,-0.00110022,0.00029823,-0.00552368,0.00
 042295,-0.00104681,-0.02362448,-0.00720461,-0.00022092,0.00432591,-0.0
 0137114,0.00013075,0.00436241,-0.00260469,-0.00114891,0.05335274,0.000
 36365,-0.00054427,0.00047732,-0.00011265,-0.00012891,0.00047151,0.0097
 2018,-0.00421285,-0.00146578,-0.00022697,-0.00004979,0.00005334,-0.000
 06247,-0.00008195,-0.00002914,-0.00015233,0.00060195,-0.00031701,-0.00
 052567,-0.00015288,-0.00002024,-0.00029421,0.00018960,-0.00037966,-0.0
 0002554,0.00009310,-0.00005978,0.00019859,0.00029104,0.00016810,0.0000
 2117,-0.00000184,-0.00002423,-0.00004049,0.00010722,-0.00010705,0.0000
 1194,0.00005992,0.00002047,0.00006283,-0.00001817,-0.00001653,0.000109
 11,-0.00007929,-0.00001388,0.00005488,-0.00002774,0.00000433,0.0000034
 0,0.00002285,0.00002407,0.00001001,0.00014469,0.00003802,-0.00002048,-
 0.00011659,0.00015129,-0.00012305,-0.00009541,0.00008456,-0.00028731,-
 0.00006751,-0.00001596,0.00052218,-0.00023005,0.00009961,-0.00118104,-
 0.21607597,-0.02907717,-0.00392907,-0.00115351,-0.00027474,-0.00001543
 ,-0.01818475,0.00204017,-0.00040649,-0.00971305,-0.00674793,-0.0036748
 8,0.24942424,-0.00020255,0.00006416,-0.00059983,-0.00034814,0.00016407
 ,0.00016998,0.00270516,-0.00159569,0.00107881,0.00015047,0.00000939,-0
 .00006481,-0.00012534,0.00007079,0.00000591,0.00087259,-0.00015373,-0.
 00039018,0.00061678,0.00027024,-0.00065388,-0.00081531,-0.00079280,-0.
 00051396,-0.00008321,-0.00002997,-0.00013318,-0.00041424,0.00037807,-0
 .00093386,-0.00007261,0.00002391,-0.00005738,-0.00006291,-0.00001191,-
 0.00005412,0.00001543,-0.00004348,0.00002098,0.00003082,-0.00005540,0.
 00002216,0.00002496,-0.00000284,-0.00001824,0.00002724,0.00002476,0.00
 003583,-0.00000473,0.00001108,0.00000418,0.00036497,-0.00007354,-0.000
 20494,0.00002805,0.00004020,-0.00005355,0.00010038,0.00007053,0.000014
 14,-0.00005517,-0.00000091,0.00016330,0.00016605,0.00071905,0.00047123
 ,-0.00160080,-0.02915673,-0.04483407,0.00029077,-0.00014938,0.00132134
 ,0.00006626,0.01799826,0.00443661,-0.00032853,-0.02269447,-0.00400538,
 -0.00134639,0.03491632,0.04477276||0.00000012,-0.00000013,-0.00000070,
 -0.00000158,0.00000002,-0.00000106,-0.00000528,0.00000113,-0.00000132,
 0.00000010,0.00000149,0.00000029,0.00000026,0.00000051,0.00000010,-0.0
 0000138,-0.00000011,0.00000146,-0.00000021,-0.00000225,0.00000085,0.00
 000017,0.00000017,-0.00000001,-0.00000006,0.,0.00000007,0.00000003,0.0
 0000007,0.00000031,0.,-0.00000006,-0.00000021,-0.00000021,-0.00000010,
 -0.00000038,-0.00000013,0.00000015,-0.00000003,0.00000005,0.00000016,0
 .00000008,0.00000004,-0.00000028,-0.00000007,0.00000003,-0.00000010,0.
 00000004,0.00000003,-0.00000001,0.00000004,0.00000011,0.00000018,0.000
 00029,-0.00000030,-0.00000009,0.00000018,0.00000004,-0.00000032,-0.000
 00014,0.00000003,0.00000004,-0.00000011,0.00000085,-0.00000111,0.00000
 026,0.00002679,-0.00000113,0.00000194,0.00000339,-0.00000010,-0.000000
 80,-0.00000710,0.00000268,-0.00000377,-0.00000760,0.00000102,0.0000039
 5,-0.00000817,-0.00000182,-0.00000126|||@


 THE MOST BEAUTIFUL EXPERIENCE WE CAN HAVE IS THE MYSTERIOUS.
 IT IS THE FUNDAMENTAL EMOTION WHICH STANDS AT AT THE CRADLE 
 OF TRUE ART AND TRUE SCIENCE.

                                    -- ALBERT EINSTEIN
 Job cpu time:       0 days  0 hours  0 minutes  5.0 seconds.
 Elapsed time:       0 days  0 hours  0 minutes  3.9 seconds.
 File lengths (MBytes):  RWF=     43 Int=      0 D2E=      0 Chk=      3 Scr=      1
 Normal termination of Gaussian 16 at Sat Dec 13 14:33:09 2025.
