 Entering Gaussian System, Link 0=g16.exe
 Input=NEt3_irc.gjf
 Output=NEt3_irc.log
 Initial command:
 D:\G16W\l1.exe ".\Gau-10752.inp" "NEt3_irc.log" /scrdir=".\"
 Entering Link 1 = D:\G16W\l1.exe PID=     17780.
  
 Copyright (c) 1988,1990,1992,1993,1995,1998,2003,2009,2016,
            Gaussian, Inc.  All Rights Reserved.
  
 This is part of the Gaussian(R) 16 program.  It is based on
 the Gaussian(R) 09 system (copyright 2009, Gaussian, Inc.),
 the Gaussian(R) 03 system (copyright 2003, Gaussian, Inc.),
 the Gaussian(R) 98 system (copyright 1998, Gaussian, Inc.),
 the Gaussian(R) 94 system (copyright 1995, Gaussian, Inc.),
 the Gaussian 92(TM) system (copyright 1992, Gaussian, Inc.),
 the Gaussian 90(TM) system (copyright 1990, Gaussian, Inc.),
 the Gaussian 88(TM) system (copyright 1988, Gaussian, Inc.),
 the Gaussian 86(TM) system (copyright 1986, Carnegie Mellon
 University), and the Gaussian 82(TM) system (copyright 1983,
 Carnegie Mellon University). Gaussian is a federally registered
 trademark of Gaussian, Inc.
  
 This software contains proprietary and confidential information,
 including trade secrets, belonging to Gaussian, Inc.
  
 This software is provided under written license and may be
 used, copied, transmitted, or stored only in accord with that
 written license.
  
 The following legend is applicable only to US Government
 contracts under FAR:
  
                    RESTRICTED RIGHTS LEGEND
  
 Use, reproduction and disclosure by the US Government is
 subject to restrictions as set forth in subparagraphs (a)
 and (c) of the Commercial Computer Software - Restricted
 Rights clause in FAR 52.227-19.
  
 Gaussian, Inc.
 340 Quinnipiac St., Bldg. 40, Wallingford CT 06492
  
  
 ---------------------------------------------------------------
 Warning -- This program may not be used in any manner that
 competes with the business of Gaussian, Inc. or will provide
 assistance to any competitor of Gaussian, Inc.  The licensee
 of this program is prohibited from giving any competitor of
 Gaussian, Inc. access to this program.  By using this program,
 the user acknowledges that Gaussian, Inc. is engaged in the
 business of creating and licensing software in the field of
 computational chemistry and represents and warrants to the
 licensee that it is not a competitor of Gaussian, Inc. and that
 it will not use this program in any manner prohibited above.
 ---------------------------------------------------------------
  

 Cite this work as:
 Gaussian 16, Revision A.03,
 M. J. Frisch, G. W. Trucks, H. B. Schlegel, G. E. Scuseria, 
 M. A. Robb, J. R. Cheeseman, G. Scalmani, V. Barone, 
 G. A. Petersson, H. Nakatsuji, X. Li, M. Caricato, A. V. Marenich, 
 J. Bloino, B. G. Janesko, R. Gomperts, B. Mennucci, H. P. Hratchian, 
 J. V. Ortiz, A. F. Izmaylov, J. L. Sonnenberg, D. Williams-Young, 
 F. Ding, F. Lipparini, F. Egidi, J. Goings, B. Peng, A. Petrone, 
 T. Henderson, D. Ranasinghe, V. G. Zakrzewski, J. Gao, N. Rega, 
 G. Zheng, W. Liang, M. Hada, M. Ehara, K. Toyota, R. Fukuda, 
 J. Hasegawa, M. Ishida, T. Nakajima, Y. Honda, O. Kitao, H. Nakai, 
 T. Vreven, K. Throssell, J. A. Montgomery, Jr., J. E. Peralta, 
 F. Ogliaro, M. J. Bearpark, J. J. Heyd, E. N. Brothers, K. N. Kudin, 
 V. N. Staroverov, T. A. Keith, R. Kobayashi, J. Normand, 
 K. Raghavachari, A. P. Rendell, J. C. Burant, S. S. Iyengar, 
 J. Tomasi, M. Cossi, J. M. Millam, M. Klene, C. Adamo, R. Cammi, 
 J. W. Ochterski, R. L. Martin, K. Morokuma, O. Farkas, 
 J. B. Foresman, and D. J. Fox, Gaussian, Inc., Wallingford CT, 2016.
 
 ******************************************
 Gaussian 16:  EM64W-G16RevA.03 17-Dec-2016
                13-Dec-2025 
 ******************************************
 %nproc=6
 Will use up to    6 processors via shared memory.
 %mem=4GB
 ------------------------------------------
 #PM7 IRC(CalcFC, MaxPoints=20, StepSize=5)
 ------------------------------------------
 1/10=4,18=10,26=1,38=1,39=5,42=20,44=3,172=1/1,23;
 2/12=2,17=6,18=5,29=1,40=1/2;
 3/5=2,25=1,41=4200000,71=2,140=1/1,2,3;
 4/35=1/1;
 5/5=2,35=1,38=5/2;
 8/6=4,10=90,11=11/1;
 11/6=1,8=1,9=11,15=111,16=1/1,2,10;
 10/6=1,13=1/2;
 6/7=2,8=2,9=2,10=2,28=1/1;
 7/10=1,18=20,25=1/1,2,3,16;
 1/10=4,18=10,26=1,39=5,42=20,44=3/23(2);
 2/29=1/2;
 99/5=20/99;
 2/29=1/2;
 3/5=2,25=1,41=4200000,71=2,135=20,140=1/1,2,3;
 4/5=5,16=3,35=1/1;
 5/5=2,35=1,38=5/2;
 8/6=4,10=90,11=11/1;
 11/6=1,8=1,9=11,15=111,16=1/1,2,10;
 10/6=1,13=1/2;
 7/10=1,18=20,25=1/1,2,3,16;
 1/18=10,26=1,39=5,42=20,44=3/23(-8);
 2/29=1/2;
 6/7=2,8=2,9=2,10=2,19=2,28=1/1;
 99/5=20,9=1/99;
 Leave Link    1 at Sat Dec 13 15:06:53 2025, MaxMem=   536870912 cpu:               0.0 elap:               0.1
 (Enter D:\G16W\l101.exe)
 ---------------
 title: NEt3_IRC
 ---------------
 Symbolic Z-matrix:
 Charge =  0 Multiplicity = 1
 C                    -1.8959   -0.86089   2.07894 
 C                    -2.74335  -0.05806   1.09305 
 N                    -2.06801   0.16075  -0.23031 
 C                    -2.41368   1.52834  -0.76586 
 C                    -1.76734   2.66118   0.02914 
 C                    -2.51776  -0.84602  -1.25597 
 C                    -2.29789  -2.29775  -0.84075 
 H                    -1.54786  -1.81551   1.66746 
 H                    -2.47809  -1.09455   2.981 
 H                    -1.00644  -0.30813   2.413 
 H                    -2.98203   0.9279    1.5562 
 H                    -3.72431  -0.5616    0.94212 
 H                    -3.51767   1.66264  -0.78861 
 H                    -2.0671    1.58738  -1.82434 
 H                    -0.681     2.72028  -0.13706 
 H                    -1.92384   2.57363   1.1107 
 H                    -2.18338   3.63119  -0.27726 
 H                    -1.94352  -0.64591  -2.19264 
 H                    -3.59278  -0.69178  -1.50093 
 H                    -2.59241  -2.97513  -1.65573 
 H                    -2.8903   -2.58153   0.03665 
 H                    -1.24372  -2.51779  -0.61959 
 C                    -0.15656   0.06402  -0.13518 
 I                     2.48805  -0.04451  -0.01743 
 H                    -0.09424   0.74306   0.70617 
 H                    -0.02734   0.43843  -1.14319 
 H                    -0.13958  -1.00386   0.04179 
 
 ITRead=  0  0  0  0  0  0  0  0  0  0  0  0  0  0  0  0  0  0  0  0
 ITRead=  0  0  0  0  0  0  0
 MicOpt= -1 -1 -1 -1 -1 -1 -1 -1 -1 -1 -1 -1 -1 -1 -1 -1 -1 -1 -1 -1
 MicOpt= -1 -1 -1 -1 -1 -1 -1
 NAtoms=     27 NQM=       27 NQMF=       0 NMMI=      0 NMMIF=      0
                NMic=       0 NMicF=      0.
                    Isotopes and Nuclear Properties:
 (Nuclear quadrupole moments (NQMom) in fm**2, nuclear magnetic moments (NMagM)
  in nuclear magnetons)

  Atom         1           2           3           4           5           6           7           8           9          10
 IAtWgt=          12          12          14          12          12          12          12           1           1           1
 AtmWgt=  12.0000000  12.0000000  14.0030740  12.0000000  12.0000000  12.0000000  12.0000000   1.0078250   1.0078250   1.0078250
 NucSpn=           0           0           2           0           0           0           0           1           1           1
 AtZEff=   0.0000000   0.0000000   0.0000000   0.0000000   0.0000000   0.0000000   0.0000000   0.0000000   0.0000000   0.0000000
 NQMom=    0.0000000   0.0000000   2.0440000   0.0000000   0.0000000   0.0000000   0.0000000   0.0000000   0.0000000   0.0000000
 NMagM=    0.0000000   0.0000000   0.4037610   0.0000000   0.0000000   0.0000000   0.0000000   2.7928460   2.7928460   2.7928460
 AtZNuc=   6.0000000   6.0000000   7.0000000   6.0000000   6.0000000   6.0000000   6.0000000   1.0000000   1.0000000   1.0000000

  Atom        11          12          13          14          15          16          17          18          19          20
 IAtWgt=           1           1           1           1           1           1           1           1           1           1
 AtmWgt=   1.0078250   1.0078250   1.0078250   1.0078250   1.0078250   1.0078250   1.0078250   1.0078250   1.0078250   1.0078250
 NucSpn=           1           1           1           1           1           1           1           1           1           1
 AtZEff=   0.0000000   0.0000000   0.0000000   0.0000000   0.0000000   0.0000000   0.0000000   0.0000000   0.0000000   0.0000000
 NQMom=    0.0000000   0.0000000   0.0000000   0.0000000   0.0000000   0.0000000   0.0000000   0.0000000   0.0000000   0.0000000
 NMagM=    2.7928460   2.7928460   2.7928460   2.7928460   2.7928460   2.7928460   2.7928460   2.7928460   2.7928460   2.7928460
 AtZNuc=   1.0000000   1.0000000   1.0000000   1.0000000   1.0000000   1.0000000   1.0000000   1.0000000   1.0000000   1.0000000

  Atom        21          22          23          24          25          26          27
 IAtWgt=           1           1          12         127           1           1           1
 AtmWgt=   1.0078250   1.0078250  12.0000000 126.9004000   1.0078250   1.0078250   1.0078250
 NucSpn=           1           1           0           5           1           1           1
 AtZEff=   0.0000000   0.0000000   0.0000000   0.0000000   0.0000000   0.0000000   0.0000000
 NQMom=    0.0000000   0.0000000   0.0000000 -71.0000000   0.0000000   0.0000000   0.0000000
 NMagM=    2.7928460   2.7928460   0.0000000   2.8132800   2.7928460   2.7928460   2.7928460
 AtZNuc=   1.0000000   1.0000000   6.0000000  53.0000000   1.0000000   1.0000000   1.0000000
 Leave Link  101 at Sat Dec 13 15:06:53 2025, MaxMem=   536870912 cpu:               0.0 elap:               0.2
 (Enter D:\G16W\l123.exe)
 IRC-IRC-IRC-IRC-IRC-IRC-IRC-IRC-IRC-IRC-IRC-IRC-IRC-IRC-IRC-IRC-IRC-IRC
 ------------------------------------------------------------------------
 INPUT DATA FOR L123
 ------------------------------------------------------------------------
 GENERAL PARAMETERS:
 Follow reaction path in both directions.
 Maximum points per path      =  20
 Step size                    =   0.050 bohr
 Integration scheme           = HPC                                 
    Redo corrector integration= Yes                                 
    DWI Weight Power          =  2
    DWI will use Hessian update vectors when possible.
    Max correction cycles     =  20
 Initial Hessian              = CalcFC
 Hessian evaluation           = All updating
 Hessian updating method      = Bofill                              
 ------------------------------------------------------------------------
 IRC-IRC-IRC-IRC-IRC-IRC-IRC-IRC-IRC-IRC-IRC-IRC-IRC-IRC-IRC-IRC-IRC-IRC
 Leave Link  123 at Sat Dec 13 15:06:53 2025, MaxMem=   536870912 cpu:               0.0 elap:               0.1
 (Enter D:\G16W\l202.exe)
                          Input orientation:                          
 ---------------------------------------------------------------------
 Center     Atomic      Atomic             Coordinates (Angstroms)
 Number     Number       Type             X           Y           Z
 ---------------------------------------------------------------------
      1          6           0       -1.895901   -0.860893    2.078939
      2          6           0       -2.743351   -0.058064    1.093053
      3          7           0       -2.068008    0.160748   -0.230306
      4          6           0       -2.413681    1.528343   -0.765861
      5          6           0       -1.767342    2.661177    0.029138
      6          6           0       -2.517760   -0.846023   -1.255974
      7          6           0       -2.297894   -2.297747   -0.840746
      8          1           0       -1.547860   -1.815512    1.667460
      9          1           0       -2.478085   -1.094553    2.980999
     10          1           0       -1.006438   -0.308133    2.412997
     11          1           0       -2.982032    0.927901    1.556195
     12          1           0       -3.724305   -0.561604    0.942118
     13          1           0       -3.517671    1.662637   -0.788608
     14          1           0       -2.067102    1.587383   -1.824335
     15          1           0       -0.680996    2.720280   -0.137055
     16          1           0       -1.923837    2.573628    1.110695
     17          1           0       -2.183375    3.631187   -0.277257
     18          1           0       -1.943517   -0.645913   -2.192641
     19          1           0       -3.592782   -0.691779   -1.500925
     20          1           0       -2.592409   -2.975126   -1.655727
     21          1           0       -2.890301   -2.581527    0.036653
     22          1           0       -1.243719   -2.517788   -0.619588
     23          6           0       -0.156560    0.064020   -0.135179
     24         53           0        2.488049   -0.044506   -0.017431
     25          1           0       -0.094236    0.743060    0.706167
     26          1           0       -0.027340    0.438430   -1.143186
     27          1           0       -0.139578   -1.003856    0.041794
 ---------------------------------------------------------------------
                    Distance matrix (angstroms):
                    1          2          3          4          5
     1  C    0.000000
     2  C    1.527965   0.000000
     3  N    2.531004   1.501748   0.000000
     4  C    3.750924   2.465954   1.508849   0.000000
     5  C    4.077154   3.078763   2.531769   1.527446   0.000000
     6  C    3.392429   2.487910   1.505941   2.426656   3.809868
     7  C    3.278827   2.992355   2.543557   3.828574   5.062520
     8  H    1.096241   2.201764   2.788848   4.225170   4.772108
     9  H    1.098748   2.170027   3.472236   4.574133   4.829508
    10  H    1.099219   2.195826   2.886838   3.931681   3.883112
    11  H    2.157018   1.115166   2.148383   2.464852   2.609908
    12  H    2.173706   1.112926   2.153994   3.000468   3.879375
    13  H    4.149839   2.664776   2.160762   1.112361   2.174728
    14  H    4.610739   3.417011   2.139209   1.115334   2.162927
    15  H    4.383084   3.672284   2.912680   2.195064   1.100573
    16  H    3.568503   2.756396   2.764247   2.203186   1.096322
    17  H    5.080658   3.975160   3.472673   2.171112   1.099036
    18  H    4.277251   3.432359   2.125314   2.642753   3.988005
    19  H    3.965278   2.802115   2.160141   2.619072   4.112862
    20  H    4.347739   4.010963   3.484326   4.594022   5.940321
    21  H    2.849622   2.739606   2.875327   4.214526   5.361626
    22  H    3.233062   3.351459   2.829408   4.214426   5.245637
    23  C    2.963628   2.866173   1.916256   2.763439   3.060530
    24  I    4.927502   5.347981   4.565643   5.202015   5.042940
    25  H    2.775458   2.794511   2.260939   2.857160   2.633785
    26  H    3.944851   3.553025   2.252728   2.650454   3.056559
    27  H    2.693523   2.962989   2.269181   3.497983   4.010267
                    6          7          8          9         10
     6  C    0.000000
     7  C    1.525863   0.000000
     8  H    3.229099   2.661992   0.000000
     9  H    4.244441   4.010721   1.763657   0.000000
    10  H    4.004344   4.026570   1.766679   1.762620   0.000000
    11  H    3.357179   4.076540   3.097668   2.524747   2.482914
    12  H    2.523540   2.868352   2.614444   2.448292   3.100731
    13  H    2.740735   4.144299   4.691476   4.784639   4.521117
    14  H    2.539211   4.014343   4.903258   5.518417   4.761614
    15  H    4.164637   5.318847   4.957937   5.244496   3.972400
    16  H    4.200938   5.261020   4.440259   4.154609   3.292743
    17  H    4.595118   5.956752   5.818276   5.747670   4.913338
    18  H    1.116756   2.163737   4.052763   5.220497   4.712124
    19  H    1.113312   2.166034   3.934863   4.635992   4.706925
    20  H    2.167592   1.099898   3.671425   5.004883   5.116900
    21  H    2.195825   1.096041   2.246877   3.324182   3.790023
    22  H    2.196125   1.099370   2.411697   4.063679   3.759714
    23  C    2.767603   3.265131   2.952603   4.054915   2.711824
    24  I    5.218672   5.353522   4.718462   5.895394   4.264730
    25  H    3.499807   4.061472   3.095706   3.772853   2.202360
    26  H    2.804413   3.568410   3.910494   5.036377   3.763300
    27  H    2.713828   2.666713   2.298877   3.757096   2.618794
                   11         12         13         14         15
    11  H    0.000000
    12  H    1.773890   0.000000
    13  H    2.514925   2.825838   0.000000
    14  H    3.563705   3.875271   1.783969   0.000000
    15  H    3.372608   4.604032   3.096749   2.460012   0.000000
    16  H    2.006655   3.619362   2.641508   3.099614   1.767213
    17  H    3.362611   4.630425   2.432491   2.565951   1.762541
    18  H    4.196329   3.606248   3.127087   2.266833   4.141334
    19  H    3.513170   2.450041   2.460958   2.761679   4.688367
    20  H    5.069701   3.722241   4.807999   4.595744   6.196573
    21  H    3.825377   2.365485   4.368933   4.639046   5.746335
    22  H    4.430410   3.524044   4.761867   4.356811   5.290260
    23  C    3.404457   3.778992   3.778838   2.970531   2.707536
    24  I    5.774397   6.307255   6.291083   5.165013   4.207279
    25  H    3.015971   3.864611   3.847061   3.317909   2.228163
    26  H    4.031928   4.360747   3.715753   2.438173   2.578062
    27  H    3.755614   3.722424   4.383066   3.729920   3.767534
                   16         17         18         19         20
    16  H    0.000000
    17  H    1.764143   0.000000
    18  H    4.612793   4.692527   0.000000
    19  H    4.502091   4.708697   1.789036   0.000000
    20  H    6.236085   6.760981   2.476807   2.497676   0.000000
    21  H    5.353806   6.260679   3.100444   2.535503   1.762898
    22  H    5.420236   6.229770   2.543252   3.103089   1.761166
    23  C    3.312643   4.105222   2.816091   3.774138   4.181128
    24  I    5.252812   5.949826   4.973128   6.292553   6.089631
    25  H    2.619554   3.697689   3.708392   4.378338   5.064022
    26  H    3.638097   3.948673   2.439035   3.757356   4.300540
    27  H    4.138178   5.075680   2.893962   3.794996   3.575453
                   21         22         23         24         25
    21  H    0.000000
    22  H    1.773682   0.000000
    23  C    3.808121   2.842939   0.000000
    24  I    5.946936   4.517279   2.649453   0.000000
    25  H    4.395351   3.702981   1.082979   2.795004   0.000000
    26  H    4.325356   3.239284   1.083032   2.797809   1.875468
    27  H    3.171049   1.987094   1.082574   2.797907   1.869535
                   26         27
    26  H    0.000000
    27  H    1.870017   0.000000
 Symmetry turned off by external request.
 Stoichiometry    C7H18IN
 Framework group  C1[X(C7H18IN)]
 Deg. of freedom    75
 Full point group                 C1      NOp   1
 Rotational constants (GHZ):           1.2704506           0.3540760           0.3270911
 Leave Link  202 at Sat Dec 13 15:06:53 2025, MaxMem=   536870912 cpu:               0.0 elap:               0.1
 (Enter D:\G16W\l301.exe)
 Standard basis: VSTO-6G (5D, 7F)
 Ernie: Thresh=  0.10000D-02 Tol=  0.10000D-05 Strict=F.
 EHB=         0.000000000 Number of Hydrogen Bonds=     0
  NNHCO=     0 NNPyr=     0 NCTC=     0               EPep=         0.000000000
    EC=       262.687135891  ECS=         4.044308824   EG=         0.771855797
   EHC=         0.000624463  EAt=       -51.949606858  AtH=         3.621591535
 EPDDG=         0.000000000  ECC=       267.503924974 EAtT=        55.571198393
  EHyb=         0.000000000
    59 basis functions,   360 primitive gaussians,    60 cartesian basis functions
    29 alpha electrons       29 beta electrons
       nuclear repulsion energy       323.0751233674 Hartrees.
 IExCor=    0 DFT=F Ex=HF Corr=None ExCW=0 ScaHFX=  1.000000
 ScaDFX=  1.000000  1.000000  1.000000  1.000000 ScalE2=  1.000000  1.000000
 IRadAn=      5 IRanWt=     -1 IRanGd=            0 ICorTp=0 IEmpDi=251
 Integral buffers will be    131072 words long.
 Regular integral format.
 Two-electron integral symmetry is turned off.
 R6Disp:  PM7 Dispersion energy=       -0.0072241537 Hartrees.
 Nuclear repulsion after empirical dispersion term =      323.0678992136 Hartrees.
 Leave Link  301 at Sat Dec 13 15:06:53 2025, MaxMem=   536870912 cpu:               0.0 elap:               0.1
 (Enter D:\G16W\l302.exe)
 Do NDO integrals.
 NPDir=0 NMtPBC=     1 NCelOv=     1 NCel=       1 NClECP=     1 NCelD=      1
         NCelK=      1 NCelE2=     1 NClLst=     1 CellRange=     0.0.
 One-electron integrals computed using PRISM.
 NBasis=    59 RedAO= F EigKep=  0.00D+00  NBF=    59
 NBsUse=    59 1.00D-04 EigRej=  0.00D+00 NBFU=    59
 Leave Link  302 at Sat Dec 13 15:06:54 2025, MaxMem=   536870912 cpu:               1.0 elap:               0.2
 (Enter D:\G16W\l303.exe)
 DipDrv:  MaxL=1.
 Leave Link  303 at Sat Dec 13 15:06:54 2025, MaxMem=   536870912 cpu:               0.0 elap:               0.1
 (Enter D:\G16W\l401.exe)
 Nonelectrostatic core Hamiltonian diagonalized for initial guess.
 JPrj=0 DoOrth=F DoCkMO=F.
 Leave Link  401 at Sat Dec 13 15:06:54 2025, MaxMem=   536870912 cpu:               0.0 elap:               0.1
 (Enter D:\G16W\l502.exe)
 Keep J ints in memory in canonical form, NReq=1857714.
 FoFCou: FMM=F IPFlag=           0 FMFlag=           0 FMFlg1=           0
         NFxFlg=           0 DoJE=F BraDBF=F KetDBF=F FulRan=T
         wScrn=  0.000000 ICntrl=       600 IOpCl=  2 I1Cent=           0 NGrid=           0
         NMat0=    1 NMatS0=    143 NMatT0=    0 NMatD0=    1 NMtDS0=    0 NMtDT0=    0
 Symmetry not used in FoFCou.
 Two-electron integral symmetry not used.
 Closed shell SCF:
 Using DIIS extrapolation, IDIIS=  1040.
 Overlap will be assumed to be unity.
 NGot=   536870912 LenX=   536792871 LenY=   536788830
 Requested convergence on RMS density matrix=1.00D-08 within 128 cycles.
 Requested convergence on MAX density matrix=1.00D-06.
 Requested convergence on             energy=1.00D-06.
 No special actions if energy rises.

 Cycle   1  Pass 1  IDiag  1:
 E= 0.943355043206282    
 DIIS: error= 4.25D-02 at cycle   1 NSaved=   1.
 NSaved= 1 IEnMin= 1 EnMin= 0.943355043206282     IErMin= 1 ErrMin= 4.25D-02
 ErrMax= 4.25D-02  0.00D+00 EMaxC= 1.00D-01 BMatC= 1.59D-01 BMatP= 1.59D-01
 IDIUse=3 WtCom= 5.75D-01 WtEn= 4.25D-01
 Coeff-Com:  0.100D+01
 Coeff-En:   0.100D+01
 Coeff:      0.100D+01
 GapD=    2.000 DampG=2.000 DampE=0.500 DampFc=1.0000 IDamp=-1.
 RMSDP=1.48D-02 MaxDP=1.50D-01              OVMax= 0.00D+00

 Cycle   2  Pass 1  IDiag  1:
 E= 0.245096156918407     Delta-E=       -0.698258886288 Rises=F Damp=F
 DIIS: error= 2.16D-02 at cycle   2 NSaved=   2.
 NSaved= 2 IEnMin= 2 EnMin= 0.245096156918407     IErMin= 2 ErrMin= 2.16D-02
 ErrMax= 2.16D-02  0.00D+00 EMaxC= 1.00D-01 BMatC= 3.53D-02 BMatP= 1.59D-01
 IDIUse=3 WtCom= 7.84D-01 WtEn= 2.16D-01
 Coeff-Com: -0.541D+00 0.154D+01
 Coeff-En:   0.000D+00 0.100D+01
 Coeff:     -0.424D+00 0.142D+01
 RMSDP=1.02D-02 MaxDP=1.91D-01 DE=-6.98D-01 OVMax= 0.00D+00

 Cycle   3  Pass 1  IDiag  1:
 E= 0.418004406757859E-01 Delta-E=       -0.203295716243 Rises=F Damp=F
 DIIS: error= 7.66D-03 at cycle   3 NSaved=   3.
 NSaved= 3 IEnMin= 3 EnMin= 0.418004406757859E-01 IErMin= 3 ErrMin= 7.66D-03
 ErrMax= 7.66D-03  0.00D+00 EMaxC= 1.00D-01 BMatC= 4.48D-03 BMatP= 3.53D-02
 IDIUse=3 WtCom= 9.23D-01 WtEn= 7.66D-02
 Coeff-Com:  0.129D-01-0.450D+00 0.144D+01
 Coeff-En:   0.000D+00 0.000D+00 0.100D+01
 Coeff:      0.119D-01-0.416D+00 0.140D+01
 RMSDP=4.39D-03 MaxDP=6.11D-02 DE=-2.03D-01 OVMax= 0.00D+00

 Cycle   4  Pass 1  IDiag  3:
 E= 0.156508357524103E-01 Delta-E=       -0.026149604923 Rises=F Damp=F
 DIIS: error= 1.50D-03 at cycle   4 NSaved=   4.
 NSaved= 4 IEnMin= 4 EnMin= 0.156508357524103E-01 IErMin= 4 ErrMin= 1.50D-03
 ErrMax= 1.50D-03  0.00D+00 EMaxC= 1.00D-01 BMatC= 1.97D-04 BMatP= 4.48D-03
 IDIUse=3 WtCom= 9.85D-01 WtEn= 1.50D-02
 Coeff-Com:  0.382D-01-0.975D-01-0.549D-01 0.111D+01
 Coeff-En:   0.000D+00 0.000D+00 0.000D+00 0.100D+01
 Coeff:      0.377D-01-0.961D-01-0.541D-01 0.111D+01
 Gap=     0.275 Goal=   None    Shift=    0.000
 RMSDP=8.57D-04 MaxDP=1.41D-02 DE=-2.61D-02 OVMax= 2.36D-02

 Cycle   5  Pass 1  IDiag  3:
 E= 0.146129258133669E-01 Delta-E=       -0.001037909939 Rises=F Damp=F
 DIIS: error= 5.41D-04 at cycle   5 NSaved=   5.
 NSaved= 5 IEnMin= 5 EnMin= 0.146129258133669E-01 IErMin= 5 ErrMin= 5.41D-04
 ErrMax= 5.41D-04  0.00D+00 EMaxC= 1.00D-01 BMatC= 1.58D-05 BMatP= 1.97D-04
 IDIUse=3 WtCom= 9.95D-01 WtEn= 5.41D-03
 Coeff-Com: -0.871D-02 0.335D-01-0.190D-01-0.404D+00 0.140D+01
 Coeff-En:   0.000D+00 0.000D+00 0.000D+00 0.000D+00 0.100D+01
 Coeff:     -0.867D-02 0.333D-01-0.189D-01-0.402D+00 0.140D+01
 Gap=     0.274 Goal=   None    Shift=    0.000
 RMSDP=2.97D-04 MaxDP=4.99D-03 DE=-1.04D-03 OVMax= 7.56D-03

 Cycle   6  Pass 1  IDiag  3:
 E= 0.145044440851620E-01 Delta-E=       -0.000108481728 Rises=F Damp=F
 DIIS: error= 1.34D-04 at cycle   6 NSaved=   6.
 NSaved= 6 IEnMin= 6 EnMin= 0.145044440851620E-01 IErMin= 6 ErrMin= 1.34D-04
 ErrMax= 1.34D-04  0.00D+00 EMaxC= 1.00D-01 BMatC= 1.09D-06 BMatP= 1.58D-05
 IDIUse=3 WtCom= 9.99D-01 WtEn= 1.34D-03
 Coeff-Com: -0.681D-03-0.174D-02 0.335D-02 0.756D-01-0.487D+00 0.141D+01
 Coeff-En:   0.000D+00 0.000D+00 0.000D+00 0.000D+00 0.000D+00 0.100D+01
 Coeff:     -0.680D-03-0.174D-02 0.335D-02 0.755D-01-0.486D+00 0.141D+01
 Gap=     0.273 Goal=   None    Shift=    0.000
 RMSDP=8.58D-05 MaxDP=1.44D-03 DE=-1.08D-04 OVMax= 1.99D-03

 Cycle   7  Pass 1  IDiag  3:
 E= 0.144969105186306E-01 Delta-E=       -0.000007533567 Rises=F Damp=F
 DIIS: error= 2.12D-05 at cycle   7 NSaved=   7.
 NSaved= 7 IEnMin= 7 EnMin= 0.144969105186306E-01 IErMin= 7 ErrMin= 2.12D-05
 ErrMax= 2.12D-05  0.00D+00 EMaxC= 1.00D-01 BMatC= 4.46D-08 BMatP= 1.09D-06
 IDIUse=1 WtCom= 1.00D+00 WtEn= 0.00D+00
 Coeff-Com:  0.224D-03-0.920D-04-0.496D-03-0.197D-02 0.514D-01-0.287D+00
 Coeff-Com:  0.124D+01
 Coeff:      0.224D-03-0.920D-04-0.496D-03-0.197D-02 0.514D-01-0.287D+00
 Coeff:      0.124D+01
 Gap=     0.273 Goal=   None    Shift=    0.000
 RMSDP=1.43D-05 MaxDP=2.36D-04 DE=-7.53D-06 OVMax= 3.79D-04

 Cycle   8  Pass 1  IDiag  3:
 E= 0.144966220431684E-01 Delta-E=       -0.000000288475 Rises=F Damp=F
 DIIS: error= 8.62D-06 at cycle   8 NSaved=   8.
 NSaved= 8 IEnMin= 8 EnMin= 0.144966220431684E-01 IErMin= 8 ErrMin= 8.62D-06
 ErrMax= 8.62D-06  0.00D+00 EMaxC= 1.00D-01 BMatC= 5.05D-09 BMatP= 4.46D-08
 IDIUse=1 WtCom= 1.00D+00 WtEn= 0.00D+00
 Coeff-Com: -0.389D-04 0.127D-03-0.779D-04-0.415D-02 0.153D-01-0.423D-02
 Coeff-Com: -0.448D+00 0.144D+01
 Coeff:     -0.389D-04 0.127D-03-0.779D-04-0.415D-02 0.153D-01-0.423D-02
 Coeff:     -0.448D+00 0.144D+01
 Gap=     0.273 Goal=   None    Shift=    0.000
 RMSDP=6.19D-06 MaxDP=1.07D-04 DE=-2.88D-07 OVMax= 1.85D-04

 Cycle   9  Pass 1  IDiag  3:
 E= 0.144965845719867E-01 Delta-E=       -0.000000037471 Rises=F Damp=F
 DIIS: error= 1.95D-06 at cycle   9 NSaved=   9.
 NSaved= 9 IEnMin= 9 EnMin= 0.144965845719867E-01 IErMin= 9 ErrMin= 1.95D-06
 ErrMax= 1.95D-06  0.00D+00 EMaxC= 1.00D-01 BMatC= 2.66D-10 BMatP= 5.05D-09
 IDIUse=1 WtCom= 1.00D+00 WtEn= 0.00D+00
 Coeff-Com: -0.808D-05 0.120D-04-0.152D-04 0.115D-02-0.490D-02 0.666D-02
 Coeff-Com:  0.103D+00-0.512D+00 0.141D+01
 Coeff:     -0.808D-05 0.120D-04-0.152D-04 0.115D-02-0.490D-02 0.666D-02
 Coeff:      0.103D+00-0.512D+00 0.141D+01
 Gap=     0.273 Goal=   None    Shift=    0.000
 RMSDP=1.30D-06 MaxDP=2.01D-05 DE=-3.75D-08 OVMax= 3.37D-05

 Cycle  10  Pass 1  IDiag  3:
 E= 0.144965828314412E-01 Delta-E=       -0.000000001741 Rises=F Damp=F
 DIIS: error= 4.04D-07 at cycle  10 NSaved=  10.
 NSaved=10 IEnMin=10 EnMin= 0.144965828314412E-01 IErMin=10 ErrMin= 4.04D-07
 ErrMax= 4.04D-07  0.00D+00 EMaxC= 1.00D-01 BMatC= 1.37D-11 BMatP= 2.66D-10
 IDIUse=1 WtCom= 1.00D+00 WtEn= 0.00D+00
 Coeff-Com:  0.677D-06-0.564D-06 0.633D-05-0.198D-03 0.843D-03-0.161D-02
 Coeff-Com: -0.116D-01 0.858D-01-0.396D+00 0.132D+01
 Coeff:      0.677D-06-0.564D-06 0.633D-05-0.198D-03 0.843D-03-0.161D-02
 Coeff:     -0.116D-01 0.858D-01-0.396D+00 0.132D+01
 Gap=     0.273 Goal=   None    Shift=    0.000
 RMSDP=2.46D-07 MaxDP=3.74D-06 DE=-1.74D-09 OVMax= 4.66D-06

 Cycle  11  Pass 1  IDiag  3:
 E= 0.144965827438455E-01 Delta-E=       -0.000000000088 Rises=F Damp=F
 DIIS: error= 1.18D-07 at cycle  11 NSaved=  11.
 NSaved=11 IEnMin=11 EnMin= 0.144965827438455E-01 IErMin=11 ErrMin= 1.18D-07
 ErrMax= 1.18D-07  0.00D+00 EMaxC= 1.00D-01 BMatC= 1.51D-12 BMatP= 1.37D-11
 IDIUse=1 WtCom= 1.00D+00 WtEn= 0.00D+00
 Coeff-Com:  0.115D-06-0.588D-06-0.667D-06 0.817D-05-0.502D-04 0.231D-03
 Coeff-Com: -0.154D-02-0.320D-02 0.650D-01-0.532D+00 0.147D+01
 Coeff:      0.115D-06-0.588D-06-0.667D-06 0.817D-05-0.502D-04 0.231D-03
 Coeff:     -0.154D-02-0.320D-02 0.650D-01-0.532D+00 0.147D+01
 Gap=     0.273 Goal=   None    Shift=    0.000
 RMSDP=9.15D-08 MaxDP=1.20D-06 DE=-8.76D-11 OVMax= 1.51D-06

 Cycle  12  Pass 1  IDiag  3:
 E= 0.144965827292936E-01 Delta-E=       -0.000000000015 Rises=F Damp=F
 DIIS: error= 4.29D-08 at cycle  12 NSaved=  12.
 NSaved=12 IEnMin=12 EnMin= 0.144965827292936E-01 IErMin=12 ErrMin= 4.29D-08
 ErrMax= 4.29D-08  0.00D+00 EMaxC= 1.00D-01 BMatC= 1.37D-13 BMatP= 1.51D-12
 IDIUse=1 WtCom= 1.00D+00 WtEn= 0.00D+00
 Coeff-Com: -0.331D-07-0.298D-07-0.464D-06 0.195D-04-0.822D-04 0.149D-03
 Coeff-Com:  0.113D-02-0.447D-02 0.443D-02 0.102D+00-0.588D+00 0.148D+01
 Coeff:     -0.331D-07-0.298D-07-0.464D-06 0.195D-04-0.822D-04 0.149D-03
 Coeff:      0.113D-02-0.447D-02 0.443D-02 0.102D+00-0.588D+00 0.148D+01
 Gap=     0.273 Goal=   None    Shift=    0.000
 RMSDP=2.84D-08 MaxDP=3.48D-07 DE=-1.46D-11 OVMax= 4.36D-07

 Cycle  13  Pass 1  IDiag  3:
 E= 0.144965827286114E-01 Delta-E=       -0.000000000001 Rises=F Damp=F
 DIIS: error= 1.03D-08 at cycle  13 NSaved=  13.
 NSaved=13 IEnMin=13 EnMin= 0.144965827286114E-01 IErMin=13 ErrMin= 1.03D-08
 ErrMax= 1.03D-08  0.00D+00 EMaxC= 1.00D-01 BMatC= 7.82D-15 BMatP= 1.37D-13
 IDIUse=1 WtCom= 1.00D+00 WtEn= 0.00D+00
 Coeff-Com:  0.714D-08-0.845D-07 0.374D-06-0.458D-05 0.150D-04-0.159D-04
 Coeff-Com: -0.356D-03 0.160D-02-0.497D-02 0.272D-02 0.747D-01-0.444D+00
 Coeff-Com:  0.137D+01
 Coeff:      0.714D-08-0.845D-07 0.374D-06-0.458D-05 0.150D-04-0.159D-04
 Coeff:     -0.356D-03 0.160D-02-0.497D-02 0.272D-02 0.747D-01-0.444D+00
 Coeff:      0.137D+01
 Gap=     0.273 Goal=   None    Shift=    0.000
 RMSDP=6.65D-09 MaxDP=7.33D-08 DE=-6.82D-13 OVMax= 1.16D-07

 Cycle  14  Pass 2  IDiag  1:
 SCF Done:  E(RPM7) =  0.144965827286E-01 A.U. after   14 cycles
            NFock= 13  Conv=0.66D-08     -V/T= 1.0002
 KE=-8.846238461691D+01 PE=-5.205257421624D+02 EE= 2.859347241484D+02
 Leave Link  502 at Sat Dec 13 15:06:55 2025, MaxMem=   536870912 cpu:               1.0 elap:               0.7
 (Enter D:\G16W\l801.exe)
 Range of M.O.s used for correlation:     1    59
 NBasis=    59 NAE=    29 NBE=    29 NFC=     0 NFV=     0
 NROrb=     59 NOA=    29 NOB=    29 NVA=    30 NVB=    30
 Leave Link  801 at Sat Dec 13 15:06:55 2025, MaxMem=   536870912 cpu:               0.0 elap:               0.1
 (Enter D:\G16W\l1101.exe)
 Using compressed storage, NAtomX=    27.
 Will process     28 centers per pass.
 R6Disp: Adding PM7 dispersion energy 1st derivatives to the gradient.
 Leave Link 1101 at Sat Dec 13 15:06:55 2025, MaxMem=   536870912 cpu:               0.0 elap:               0.1
 (Enter D:\G16W\l1102.exe)
 Symmetrizing basis deriv contribution to polar:
 IMax=3 JMax=2 DiffMx= 0.00D+00
 Leave Link 1102 at Sat Dec 13 15:06:55 2025, MaxMem=   536870912 cpu:               0.0 elap:               0.1
 (Enter D:\G16W\l1110.exe)
 Forming Gx(P) for the SCF density, NAtomX=    27.
 Integral derivatives from FoFJK, PRISM(SPDF).
 Do as many integral derivatives as possible in FoFJK.
 G2DrvN: MDV=     536809956.
 G2DrvN: will do    28 centers at a time, making    1 passes.
 Calling FoFCou, ICntrl=  3107 FMM=F I1Cent=   0 AccDes= 0.00D+00.
 FoFJK:  IHMeth=43 ICntrl=    3107 DoSepK=F KAlg= 0 I1Cent=           0 FoldK=F
 IRaf=         0 NMat=       1 IRICut=       1 DoRegI=T DoRafI=F ISym2E= 0 IDoP0=3 IntGTp=3.
 FoFCou: FMM=F IPFlag=           0 FMFlag=      100000 FMFlg1=           0
         NFxFlg=           0 DoJE=F BraDBF=F KetDBF=F FulRan=T
         wScrn=  0.000000 ICntrl=      3107 IOpCl=  0 I1Cent=           0 NGrid=           0
         NMat0=    1 NMatS0=      1 NMatT0=    0 NMatD0=    1 NMtDS0=    0 NMtDT0=    0
 Symmetry not used in FoFCou.
 End of G2Drv F.D. properties file   721 does not exist.
 End of G2Drv F.D. properties file   722 does not exist.
 End of G2Drv F.D. properties file   788 does not exist.
 Leave Link 1110 at Sat Dec 13 15:06:55 2025, MaxMem=   536870912 cpu:               0.0 elap:               0.2
 (Enter D:\G16W\l1002.exe)
 Minotr:  Closed shell wavefunction.
          IDoAtm=111111111111111111111111111
          Direct CPHF calculation.
          Differentiating once with respect to nuclear coordinates.
          Electric field/nuclear overlap derivatives assumed to be zero.
          Requested convergence is 1.0D-08 RMS, and 1.0D-07 maximum.
          NewPWx=T KeepS1=F KeepF1=F KeepIn=T MapXYZ=F SortEE=F KeepMc=T.
 Keep J ints in memory in canonical form, NReq=1860172.
 FoFCou: FMM=F IPFlag=           0 FMFlag=           0 FMFlg1=           0
         NFxFlg=           0 DoJE=F BraDBF=F KetDBF=F FulRan=T
         wScrn=  0.000000 ICntrl=       600 IOpCl=  2 I1Cent=           0 NGrid=           0
         NMat0=    1 NMatS0=    143 NMatT0=    0 NMatD0=    1 NMtDS0=    0 NMtDT0=    0
 Symmetry not used in FoFCou.
 Two-electron integral symmetry not used.
          MDV=     536870912 using IRadAn=       1.
          Solving linear equations separately, MaxMat=       0.
          There are    84 degrees of freedom in the 1st order CPHF.  IDoFFX=5 NUNeed=    84.
 LinEq1:  Iter=  0 NonCon=    81 RMS=1.29D-02 Max=2.39D-01 NDo=    81
 AX will form    84 AO Fock derivatives at one time.
 LinEq1:  Iter=  1 NonCon=    81 RMS=1.63D-03 Max=1.33D-02 NDo=    84
 LinEq1:  Iter=  2 NonCon=    81 RMS=2.83D-04 Max=4.68D-03 NDo=    84
 LinEq1:  Iter=  3 NonCon=    81 RMS=3.61D-05 Max=3.63D-04 NDo=    84
 LinEq1:  Iter=  4 NonCon=    81 RMS=9.14D-06 Max=1.10D-04 NDo=    84
 LinEq1:  Iter=  5 NonCon=    81 RMS=1.22D-06 Max=1.16D-05 NDo=    84
 LinEq1:  Iter=  6 NonCon=    74 RMS=1.70D-07 Max=2.38D-06 NDo=    84
 LinEq1:  Iter=  7 NonCon=    14 RMS=2.40D-08 Max=2.91D-07 NDo=    84
 LinEq1:  Iter=  8 NonCon=     0 RMS=3.26D-09 Max=2.98D-08 NDo=    84
 Linear equations converged to 1.000D-08 1.000D-07 after     8 iterations.
 End of Minotr F.D. properties file   721 does not exist.
 End of Minotr F.D. properties file   722 does not exist.
 End of Minotr F.D. properties file   788 does not exist.
 Leave Link 1002 at Sat Dec 13 15:06:56 2025, MaxMem=   536870912 cpu:               1.0 elap:               0.7
 (Enter D:\G16W\l601.exe)
 Copying SCF densities to generalized density rwf, IOpCl= 0 IROHF=0.

 **********************************************************************

            Population analysis using the SCF density.

 **********************************************************************

 Alpha  occ. eigenvalues --   -1.35687  -1.04417  -1.02425  -0.98941  -0.94311
 Alpha  occ. eigenvalues --   -0.84553  -0.80155  -0.78682  -0.70330  -0.67496
 Alpha  occ. eigenvalues --   -0.64844  -0.62367  -0.60766  -0.56626  -0.55641
 Alpha  occ. eigenvalues --   -0.55198  -0.53854  -0.53570  -0.52925  -0.50914
 Alpha  occ. eigenvalues --   -0.50232  -0.49980  -0.48321  -0.47826  -0.46531
 Alpha  occ. eigenvalues --   -0.43877  -0.28586  -0.28444  -0.28435
 Alpha virt. eigenvalues --   -0.01100   0.05173   0.09289   0.09913   0.11089
 Alpha virt. eigenvalues --    0.12205   0.12780   0.14948   0.15141   0.15525
 Alpha virt. eigenvalues --    0.16960   0.17061   0.17286   0.17606   0.17874
 Alpha virt. eigenvalues --    0.18037   0.18089   0.18314   0.18510   0.19330
 Alpha virt. eigenvalues --    0.19595   0.19778   0.21999   0.22168   0.22613
 Alpha virt. eigenvalues --    4.83211   4.83225   4.83396   4.84162   4.84163
          Condensed to atoms (all electrons):
               1          2          3          4          5          6
     1  C    4.455547   0.000000   0.000000   0.000000   0.000000   0.000000
     2  C    0.000000   4.119624   0.000000   0.000000   0.000000   0.000000
     3  N    0.000000   0.000000   5.312224   0.000000   0.000000   0.000000
     4  C    0.000000   0.000000   0.000000   4.129720   0.000000   0.000000
     5  C    0.000000   0.000000   0.000000   0.000000   4.457366   0.000000
     6  C    0.000000   0.000000   0.000000   0.000000   0.000000   4.125438
     7  C    0.000000   0.000000   0.000000   0.000000   0.000000   0.000000
     8  H    0.000000   0.000000   0.000000   0.000000   0.000000   0.000000
     9  H    0.000000   0.000000   0.000000   0.000000   0.000000   0.000000
    10  H    0.000000   0.000000   0.000000   0.000000   0.000000   0.000000
    11  H    0.000000   0.000000   0.000000   0.000000   0.000000   0.000000
    12  H    0.000000   0.000000   0.000000   0.000000   0.000000   0.000000
    13  H    0.000000   0.000000   0.000000   0.000000   0.000000   0.000000
    14  H    0.000000   0.000000   0.000000   0.000000   0.000000   0.000000
    15  H    0.000000   0.000000   0.000000   0.000000   0.000000   0.000000
    16  H    0.000000   0.000000   0.000000   0.000000   0.000000   0.000000
    17  H    0.000000   0.000000   0.000000   0.000000   0.000000   0.000000
    18  H    0.000000   0.000000   0.000000   0.000000   0.000000   0.000000
    19  H    0.000000   0.000000   0.000000   0.000000   0.000000   0.000000
    20  H    0.000000   0.000000   0.000000   0.000000   0.000000   0.000000
    21  H    0.000000   0.000000   0.000000   0.000000   0.000000   0.000000
    22  H    0.000000   0.000000   0.000000   0.000000   0.000000   0.000000
    23  C    0.000000   0.000000   0.000000   0.000000   0.000000   0.000000
    24  I    0.000000   0.000000   0.000000   0.000000   0.000000   0.000000
    25  H    0.000000   0.000000   0.000000   0.000000   0.000000   0.000000
    26  H    0.000000   0.000000   0.000000   0.000000   0.000000   0.000000
    27  H    0.000000   0.000000   0.000000   0.000000   0.000000   0.000000
               7          8          9         10         11         12
     1  C    0.000000   0.000000   0.000000   0.000000   0.000000   0.000000
     2  C    0.000000   0.000000   0.000000   0.000000   0.000000   0.000000
     3  N    0.000000   0.000000   0.000000   0.000000   0.000000   0.000000
     4  C    0.000000   0.000000   0.000000   0.000000   0.000000   0.000000
     5  C    0.000000   0.000000   0.000000   0.000000   0.000000   0.000000
     6  C    0.000000   0.000000   0.000000   0.000000   0.000000   0.000000
     7  C    4.455443   0.000000   0.000000   0.000000   0.000000   0.000000
     8  H    0.000000   0.836892   0.000000   0.000000   0.000000   0.000000
     9  H    0.000000   0.000000   0.842436   0.000000   0.000000   0.000000
    10  H    0.000000   0.000000   0.000000   0.830472   0.000000   0.000000
    11  H    0.000000   0.000000   0.000000   0.000000   0.850909   0.000000
    12  H    0.000000   0.000000   0.000000   0.000000   0.000000   0.863214
    13  H    0.000000   0.000000   0.000000   0.000000   0.000000   0.000000
    14  H    0.000000   0.000000   0.000000   0.000000   0.000000   0.000000
    15  H    0.000000   0.000000   0.000000   0.000000   0.000000   0.000000
    16  H    0.000000   0.000000   0.000000   0.000000   0.000000   0.000000
    17  H    0.000000   0.000000   0.000000   0.000000   0.000000   0.000000
    18  H    0.000000   0.000000   0.000000   0.000000   0.000000   0.000000
    19  H    0.000000   0.000000   0.000000   0.000000   0.000000   0.000000
    20  H    0.000000   0.000000   0.000000   0.000000   0.000000   0.000000
    21  H    0.000000   0.000000   0.000000   0.000000   0.000000   0.000000
    22  H    0.000000   0.000000   0.000000   0.000000   0.000000   0.000000
    23  C    0.000000   0.000000   0.000000   0.000000   0.000000   0.000000
    24  I    0.000000   0.000000   0.000000   0.000000   0.000000   0.000000
    25  H    0.000000   0.000000   0.000000   0.000000   0.000000   0.000000
    26  H    0.000000   0.000000   0.000000   0.000000   0.000000   0.000000
    27  H    0.000000   0.000000   0.000000   0.000000   0.000000   0.000000
              13         14         15         16         17         18
     1  C    0.000000   0.000000   0.000000   0.000000   0.000000   0.000000
     2  C    0.000000   0.000000   0.000000   0.000000   0.000000   0.000000
     3  N    0.000000   0.000000   0.000000   0.000000   0.000000   0.000000
     4  C    0.000000   0.000000   0.000000   0.000000   0.000000   0.000000
     5  C    0.000000   0.000000   0.000000   0.000000   0.000000   0.000000
     6  C    0.000000   0.000000   0.000000   0.000000   0.000000   0.000000
     7  C    0.000000   0.000000   0.000000   0.000000   0.000000   0.000000
     8  H    0.000000   0.000000   0.000000   0.000000   0.000000   0.000000
     9  H    0.000000   0.000000   0.000000   0.000000   0.000000   0.000000
    10  H    0.000000   0.000000   0.000000   0.000000   0.000000   0.000000
    11  H    0.000000   0.000000   0.000000   0.000000   0.000000   0.000000
    12  H    0.000000   0.000000   0.000000   0.000000   0.000000   0.000000
    13  H    0.865849   0.000000   0.000000   0.000000   0.000000   0.000000
    14  H    0.000000   0.845367   0.000000   0.000000   0.000000   0.000000
    15  H    0.000000   0.000000   0.824615   0.000000   0.000000   0.000000
    16  H    0.000000   0.000000   0.000000   0.843081   0.000000   0.000000
    17  H    0.000000   0.000000   0.000000   0.000000   0.838664   0.000000
    18  H    0.000000   0.000000   0.000000   0.000000   0.000000   0.843212
    19  H    0.000000   0.000000   0.000000   0.000000   0.000000   0.000000
    20  H    0.000000   0.000000   0.000000   0.000000   0.000000   0.000000
    21  H    0.000000   0.000000   0.000000   0.000000   0.000000   0.000000
    22  H    0.000000   0.000000   0.000000   0.000000   0.000000   0.000000
    23  C    0.000000   0.000000   0.000000   0.000000   0.000000   0.000000
    24  I    0.000000   0.000000   0.000000   0.000000   0.000000   0.000000
    25  H    0.000000   0.000000   0.000000   0.000000   0.000000   0.000000
    26  H    0.000000   0.000000   0.000000   0.000000   0.000000   0.000000
    27  H    0.000000   0.000000   0.000000   0.000000   0.000000   0.000000
              19         20         21         22         23         24
     1  C    0.000000   0.000000   0.000000   0.000000   0.000000   0.000000
     2  C    0.000000   0.000000   0.000000   0.000000   0.000000   0.000000
     3  N    0.000000   0.000000   0.000000   0.000000   0.000000   0.000000
     4  C    0.000000   0.000000   0.000000   0.000000   0.000000   0.000000
     5  C    0.000000   0.000000   0.000000   0.000000   0.000000   0.000000
     6  C    0.000000   0.000000   0.000000   0.000000   0.000000   0.000000
     7  C    0.000000   0.000000   0.000000   0.000000   0.000000   0.000000
     8  H    0.000000   0.000000   0.000000   0.000000   0.000000   0.000000
     9  H    0.000000   0.000000   0.000000   0.000000   0.000000   0.000000
    10  H    0.000000   0.000000   0.000000   0.000000   0.000000   0.000000
    11  H    0.000000   0.000000   0.000000   0.000000   0.000000   0.000000
    12  H    0.000000   0.000000   0.000000   0.000000   0.000000   0.000000
    13  H    0.000000   0.000000   0.000000   0.000000   0.000000   0.000000
    14  H    0.000000   0.000000   0.000000   0.000000   0.000000   0.000000
    15  H    0.000000   0.000000   0.000000   0.000000   0.000000   0.000000
    16  H    0.000000   0.000000   0.000000   0.000000   0.000000   0.000000
    17  H    0.000000   0.000000   0.000000   0.000000   0.000000   0.000000
    18  H    0.000000   0.000000   0.000000   0.000000   0.000000   0.000000
    19  H    0.866801   0.000000   0.000000   0.000000   0.000000   0.000000
    20  H    0.000000   0.838210   0.000000   0.000000   0.000000   0.000000
    21  H    0.000000   0.000000   0.844992   0.000000   0.000000   0.000000
    22  H    0.000000   0.000000   0.000000   0.829418   0.000000   0.000000
    23  C    0.000000   0.000000   0.000000   0.000000   4.020327   0.000000
    24  I    0.000000   0.000000   0.000000   0.000000   0.000000   7.712871
    25  H    0.000000   0.000000   0.000000   0.000000   0.000000   0.000000
    26  H    0.000000   0.000000   0.000000   0.000000   0.000000   0.000000
    27  H    0.000000   0.000000   0.000000   0.000000   0.000000   0.000000
              25         26         27
     1  C    0.000000   0.000000   0.000000
     2  C    0.000000   0.000000   0.000000
     3  N    0.000000   0.000000   0.000000
     4  C    0.000000   0.000000   0.000000
     5  C    0.000000   0.000000   0.000000
     6  C    0.000000   0.000000   0.000000
     7  C    0.000000   0.000000   0.000000
     8  H    0.000000   0.000000   0.000000
     9  H    0.000000   0.000000   0.000000
    10  H    0.000000   0.000000   0.000000
    11  H    0.000000   0.000000   0.000000
    12  H    0.000000   0.000000   0.000000
    13  H    0.000000   0.000000   0.000000
    14  H    0.000000   0.000000   0.000000
    15  H    0.000000   0.000000   0.000000
    16  H    0.000000   0.000000   0.000000
    17  H    0.000000   0.000000   0.000000
    18  H    0.000000   0.000000   0.000000
    19  H    0.000000   0.000000   0.000000
    20  H    0.000000   0.000000   0.000000
    21  H    0.000000   0.000000   0.000000
    22  H    0.000000   0.000000   0.000000
    23  C    0.000000   0.000000   0.000000
    24  I    0.000000   0.000000   0.000000
    25  H    0.846374   0.000000   0.000000
    26  H    0.000000   0.852765   0.000000
    27  H    0.000000   0.000000   0.848170
 Mulliken charges:
               1
     1  C   -0.455547
     2  C   -0.119624
     3  N   -0.312224
     4  C   -0.129720
     5  C   -0.457366
     6  C   -0.125438
     7  C   -0.455443
     8  H    0.163108
     9  H    0.157564
    10  H    0.169528
    11  H    0.149091
    12  H    0.136786
    13  H    0.134151
    14  H    0.154633
    15  H    0.175385
    16  H    0.156919
    17  H    0.161336
    18  H    0.156788
    19  H    0.133199
    20  H    0.161790
    21  H    0.155008
    22  H    0.170582
    23  C   -0.020327
    24  I   -0.712871
    25  H    0.153626
    26  H    0.147235
    27  H    0.151830
 Sum of Mulliken charges =   0.00000
 Mulliken charges with hydrogens summed into heavy atoms:
               1
     1  C    0.034652
     2  C    0.166253
     3  N   -0.312224
     4  C    0.159065
     5  C    0.036274
     6  C    0.164550
     7  C    0.031937
    23  C    0.432364
    24  I   -0.712871
 APT charges:
               1
     1  C   -0.455547
     2  C   -0.119624
     3  N   -0.312224
     4  C   -0.129720
     5  C   -0.457366
     6  C   -0.125438
     7  C   -0.455443
     8  H    0.163108
     9  H    0.157564
    10  H    0.169528
    11  H    0.149091
    12  H    0.136786
    13  H    0.134151
    14  H    0.154633
    15  H    0.175385
    16  H    0.156919
    17  H    0.161336
    18  H    0.156788
    19  H    0.133199
    20  H    0.161790
    21  H    0.155008
    22  H    0.170582
    23  C   -0.020327
    24  I   -0.712871
    25  H    0.153626
    26  H    0.147235
    27  H    0.151830
 Sum of APT charges =   0.00000
 APT charges with hydrogens summed into heavy atoms:
               1
     1  C    0.034652
     2  C    0.166253
     3  N   -0.312224
     4  C    0.159065
     5  C    0.036274
     6  C    0.164550
     7  C    0.031937
    23  C    0.432364
    24  I   -0.712871
 Charge=              0.0000 electrons
 Dipole moment (field-independent basis, Debye):
    X=            -13.5187    Y=              0.5534    Z=             -0.5074  Tot=             13.5395
 N-N= 3.230678992136D+02 E-N=-5.205257425268D+02  KE=-8.846238461691D+01
  Exact polarizability:   0.000   0.000   0.000   0.000   0.000   0.000
 Approx polarizability: 102.724  -2.276  41.501   2.071  -0.060  39.892
 Leave Link  601 at Sat Dec 13 15:06:56 2025, MaxMem=   536870912 cpu:               0.0 elap:               0.1
 (Enter D:\G16W\l701.exe)
 ... and contract with generalized density number  0.
 Compute integral second derivatives.
 R6Disp: Adding PM7 dispersion energy 2nd derivatives to the Hessian.
 Leave Link  701 at Sat Dec 13 15:06:57 2025, MaxMem=   536870912 cpu:               1.0 elap:               0.2
 (Enter D:\G16W\l702.exe)
 L702 exits ... SP integral derivatives will be done elsewhere.
 Leave Link  702 at Sat Dec 13 15:06:57 2025, MaxMem=   536870912 cpu:               0.0 elap:               0.1
 (Enter D:\G16W\l703.exe)
 Integral derivatives from FoFJK, PRISM(SPDF).
 Compute integral second derivatives, UseDBF=F ICtDFT=           0.
 Calling FoFJK, ICntrl=    100147 FMM=F ISym2X=0 I1Cent= 0 IOpClX= 0 NMat=1 NMatS=1 NMatT=0.
 FoFJK:  IHMeth=43 ICntrl=  100147 DoSepK=F KAlg= 0 I1Cent=           0 FoldK=F
 IRaf=         0 NMat=       1 IRICut=       1 DoRegI=T DoRafI=F ISym2E= 0 IDoP0=3 IntGTp=3.
 FoFCou: FMM=F IPFlag=           0 FMFlag=      100000 FMFlg1=         800
         NFxFlg=           0 DoJE=F BraDBF=F KetDBF=F FulRan=T
         wScrn=  0.000000 ICntrl=    100147 IOpCl=  0 I1Cent=           0 NGrid=           0
         NMat0=    1 NMatS0=      1 NMatT0=    0 NMatD0=    1 NMtDS0=    0 NMtDT0=    0
 Symmetry not used in FoFCou.
 Leave Link  703 at Sat Dec 13 15:06:57 2025, MaxMem=   536870912 cpu:               0.0 elap:               0.1
 (Enter D:\G16W\l716.exe)
 Dipole        =-5.31866683D+00 2.17726037D-01-1.99611931D-01
 Polarizability= 0.00000000D+00 0.00000000D+00 0.00000000D+00
                 0.00000000D+00 0.00000000D+00 0.00000000D+00
 -------------------------------------------------------------------
 Center     Atomic                   Forces (Hartrees/Bohr)
 Number     Number              X              Y              Z
 -------------------------------------------------------------------
      1        6           0.000000289    0.000000074    0.000000490
      2        6          -0.000001608   -0.000000222    0.000001003
      3        7          -0.000005370    0.000001115    0.000001002
      4        6          -0.000000009    0.000001176    0.000000118
      5        6           0.000000179    0.000000293    0.000000146
      6        6          -0.000001712    0.000000430   -0.000001238
      7        6           0.000000085   -0.000002477   -0.000000778
      8        1           0.000000136    0.000000159    0.000000066
      9        1          -0.000000143   -0.000000055    0.000000015
     10        1          -0.000000093    0.000000017   -0.000000350
     11        1          -0.000000022   -0.000000060    0.000000201
     12        1          -0.000000091    0.000000011    0.000000434
     13        1          -0.000000090    0.000000190    0.000000004
     14        1           0.000000148    0.000000209   -0.000000344
     15        1           0.000000011   -0.000000218    0.000000056
     16        1           0.000000098   -0.000000079   -0.000000217
     17        1           0.000000057    0.000000117   -0.000000111
     18        1           0.000000061    0.000000138   -0.000000190
     19        1           0.000000035   -0.000000127   -0.000000159
     20        1           0.000000025   -0.000000358    0.000000080
     21        1           0.000000076    0.000000067    0.000000112
     22        1           0.000000604   -0.000001085   -0.000000279
     23        6           0.000026802   -0.000000901   -0.000002285
     24       53           0.000003342   -0.000000103    0.000000805
     25        1          -0.000007073    0.000002746    0.000003928
     26        1          -0.000007600    0.000001004   -0.000003871
     27        1          -0.000008132   -0.000002063    0.000001364
 -------------------------------------------------------------------
 Cartesian Forces:  Max     0.000026802 RMS     0.000003524
 Z-matrix is all fixed cartesians, so copy forces.
 Leave Link  716 at Sat Dec 13 15:06:57 2025, MaxMem=   536870912 cpu:               0.0 elap:               0.1
 (Enter D:\G16W\l123.exe)
 IRC-IRC-IRC-IRC-IRC-IRC-IRC-IRC-IRC-IRC-IRC-IRC-IRC-IRC-IRC-IRC-IRC-IRC
          ******** Start new reaction path calculation ********
 Current Structure is TS -> form Hessian eigenvectors.
                            Diagonalizing Hessian.
 Supplied step size of   0.0500 bohr.
    Integration on MW PES will use step size of   0.1660 sqrt(amu)*bohr.
 Point Number:   0          Path Number:   1
 Calculating another point on the path.
 Point Number  1 in FORWARD path direction.
 Using LQA Reaction Path Following.
 IRC-IRC-IRC-IRC-IRC-IRC-IRC-IRC-IRC-IRC-IRC-IRC-IRC-IRC-IRC-IRC-IRC-IRC
 Leave Link  123 at Sat Dec 13 15:06:57 2025, MaxMem=   536870912 cpu:               0.0 elap:               0.2
 (Enter D:\G16W\l202.exe)
                          Input orientation:                          
 ---------------------------------------------------------------------
 Center     Atomic      Atomic             Coordinates (Angstroms)
 Number     Number       Type             X           Y           Z
 ---------------------------------------------------------------------
      1          6           0       -2.251070   -0.856962    2.086290
      2          6           0       -3.096312   -0.053970    1.100011
      3          7           0       -2.417581    0.164714   -0.223599
      4          6           0       -2.767288    1.532737   -0.758989
      5          6           0       -2.122539    2.665685    0.035980
      6          6           0       -2.871371   -0.842204   -1.249232
      7          6           0       -2.653078   -2.293633   -0.833908
      8          1           0       -1.902996   -1.812288    1.675931
      9          1           0       -2.833768   -1.090309    2.988300
     10          1           0       -1.361082   -0.305118    2.421739
     11          1           0       -3.335767    0.932354    1.562293
     12          1           0       -4.077236   -0.556687    0.945856
     13          1           0       -3.871753    1.663404   -0.780129
     14          1           0       -2.422340    1.592853   -1.818119
     15          1           0       -1.035771    2.726187   -0.129866
     16          1           0       -2.279108    2.579073    1.117665
     17          1           0       -2.538737    3.635742   -0.270691
     18          1           0       -2.299026   -0.643037   -2.187491
     19          1           0       -3.946662   -0.685254   -1.491270
     20          1           0       -2.947902   -2.971097   -1.649008
     21          1           0       -3.245687   -2.577823    0.043254
     22          1           0       -1.598794   -2.515302   -0.613239
     23          6           0       -0.535847    0.069254   -0.129125
     24         53           0        2.133693   -0.040358   -0.010511
     25          1           0       -0.448713    0.746916    0.712706
     26          1           0       -0.382111    0.442198   -1.135650
     27          1           0       -0.494364   -0.999010    0.048982
 ---------------------------------------------------------------------
                    Distance matrix (angstroms):
                    1          2          3          4          5
     1  C    0.000000
     2  C    1.527082   0.000000
     3  N    2.531232   1.503476   0.000000
     4  C    3.751368   2.466126   1.510108   0.000000
     5  C    4.077908   3.078460   2.531657   1.526842   0.000000
     6  C    3.392742   2.488142   1.507226   2.427244   3.810223
     7  C    3.279206   2.992088   2.543895   3.828807   5.062905
     8  H    1.096448   2.201675   2.789543   4.226705   4.773874
     9  H    1.098912   2.169923   3.473412   4.574600   4.830065
    10  H    1.099608   2.195693   2.886996   3.933467   3.885528
    11  H    2.157034   1.115293   2.149825   2.464138   2.608829
    12  H    2.173853   1.112968   2.154645   2.998025   3.877163
    13  H    4.146712   2.661880   2.161114   1.112368   2.174937
    14  H    4.612520   3.417857   2.140584   1.115509   2.162992
    15  H    4.384890   3.672560   2.911929   2.195056   1.101014
    16  H    3.570064   2.757000   2.765374   2.203399   1.096383
    17  H    5.081585   3.975385   3.473461   2.171013   1.099217
    18  H    4.279401   3.433706   2.126826   2.644594   3.990315
    19  H    3.962758   2.799348   2.160445   2.616609   4.109587
    20  H    4.348287   4.011080   3.485160   4.594484   5.940852
    21  H    2.850372   2.740234   2.877234   4.215349   5.362451
    22  H    3.234658   3.352005   2.829261   4.215832   5.247706
    23  C    2.950921   2.842876   1.886521   2.741868   3.047344
    24  I    4.928444   5.346625   4.560872   5.201391   5.043842
    25  H    2.776266   2.793064   2.256561   2.856430   2.634639
    26  H    3.944835   3.551232   2.247659   2.649570   3.057074
    27  H    2.693849   2.961063   2.264357   3.496962   4.010126
                    6          7          8          9         10
     6  C    0.000000
     7  C    1.525383   0.000000
     8  H    3.230386   2.663384   0.000000
     9  H    4.244955   4.011223   1.763491   0.000000
    10  H    4.005679   4.027739   1.766766   1.762476   0.000000
    11  H    3.356991   4.076130   3.098194   2.525206   2.483821
    12  H    2.520721   2.865792   2.614740   2.450009   3.101453
    13  H    2.738410   4.140797   4.689208   4.781360   4.520012
    14  H    2.540622   4.015804   4.906434   5.519991   4.764972
    15  H    4.166032   5.320709   4.960921   5.246083   3.975591
    16  H    4.202155   5.262295   4.442654   4.155874   3.295746
    17  H    4.595670   5.957161   5.820183   5.748358   4.915936
    18  H    1.116950   2.163795   4.055863   5.222530   4.715817
    19  H    1.113313   2.166187   3.934202   4.633481   4.705461
    20  H    2.167456   1.100122   3.672859   5.005499   5.118245
    21  H    2.196134   1.096066   2.248221   3.325007   3.791321
    22  H    2.196178   1.099703   2.413933   4.065323   3.761983
    23  C    2.745919   3.250019   2.944066   4.042693   2.707041
    24  I    5.218051   5.354289   4.720029   5.896688   4.266074
    25  H    3.499110   4.061549   3.097138   3.773885   2.204538
    26  H    2.803392   3.568348   3.911622   5.036483   3.764556
    27  H    2.712952   2.667506   2.300572   3.757757   2.619668
                   11         12         13         14         15
    11  H    0.000000
    12  H    1.773982   0.000000
    13  H    2.511703   2.819583   0.000000
    14  H    3.563396   3.872823   1.784153   0.000000
    15  H    3.372124   4.602711   3.097603   2.461142   0.000000
    16  H    2.006466   3.618808   2.641323   3.100319   1.767446
    17  H    3.362051   4.628544   2.434455   2.565439   1.762394
    18  H    4.197328   3.603796   3.126309   2.269547   4.145033
    19  H    3.509144   2.444005   2.455102   2.760464   4.686645
    20  H    5.069499   3.719959   4.804899   4.597222   6.198635
    21  H    3.825825   2.364562   4.365538   4.640813   5.748584
    22  H    4.431292   3.522729   4.759808   4.359690   5.293755
    23  C    3.383103   3.753507   3.754116   2.955150   2.703556
    24  I    5.773636   6.305304   6.289713   5.166455   4.208742
    25  H    3.015173   3.862631   3.845219   3.319019   2.229815
    26  H    4.030289   4.357107   3.714208   2.439735   2.579821
    27  H    3.754177   3.719812   4.379797   3.731073   3.768580
                   16         17         18         19         20
    16  H    0.000000
    17  H    1.763941   0.000000
    18  H    4.615890   4.694627   0.000000
    19  H    4.499234   4.705642   1.789193   0.000000
    20  H    6.237480   6.761471   2.476059   2.499496   0.000000
    21  H    5.355577   6.261527   3.100933   2.535339   1.762695
    22  H    5.423238   6.231867   2.544400   3.103626   1.760869
    23  C    3.300399   4.092853   2.802326   3.749451   4.167948
    24  I    5.254237   5.950883   4.975084   6.291204   6.090690
    25  H    2.621285   3.698727   3.710360   4.375416   5.064313
    26  H    3.638992   3.949419   2.441038   3.755481   4.300860
    27  H    4.138849   5.075684   2.895744   3.793307   3.576611
                   21         22         23         24         25
    21  H    0.000000
    22  H    1.774020   0.000000
    23  C    3.792092   2.836222   0.000000
    24  I    5.948053   4.518859   2.674421   0.000000
    25  H    4.396034   3.704441   1.084203   2.794935   0.000000
    26  H    4.325552   3.240375   1.084350   2.797868   1.874489
    27  H    3.172138   1.989333   1.083803   2.798077   1.868387
                   26         27
    26  H    0.000000
    27  H    1.868965   0.000000
 Symmetry turned off by external request.
 Stoichiometry    C7H18IN
 Framework group  C1[X(C7H18IN)]
 Deg. of freedom    75
 Full point group                 C1      NOp   1
 Rotational constants (GHZ):           1.2700960           0.3540781           0.3270869
 Leave Link  202 at Sat Dec 13 15:06:57 2025, MaxMem=   536870912 cpu:               0.0 elap:               0.1
 (Enter D:\G16W\l301.exe)
 Standard basis: VSTO-6G (5D, 7F)
 Ernie: Thresh=  0.10000D-02 Tol=  0.10000D-05 Strict=F.
 EHB=         0.000000000 Number of Hydrogen Bonds=     0
  NNHCO=     0 NNPyr=     0 NCTC=     0               EPep=         0.000000000
    EC=       262.815953347  ECS=         4.042571620   EG=         0.773314079
   EHC=         0.000621656  EAt=       -51.949606858  AtH=         3.621591535
 EPDDG=         0.000000000  ECC=       267.632460701 EAtT=        55.571198393
  EHyb=         0.000000000
    59 basis functions,   360 primitive gaussians,    60 cartesian basis functions
    29 alpha electrons       29 beta electrons
       nuclear repulsion energy       323.2036590943 Hartrees.
 IExCor=    0 DFT=F Ex=HF Corr=None ExCW=0 ScaHFX=  1.000000
 ScaDFX=  1.000000  1.000000  1.000000  1.000000 ScalE2=  1.000000  1.000000
 IRadAn=      5 IRanWt=     -1 IRanGd=            0 ICorTp=0 IEmpDi=251
 Integral buffers will be    131072 words long.
 Regular integral format.
 Two-electron integral symmetry is turned off.
 R6Disp:  PM7 Dispersion energy=       -0.0072140829 Hartrees.
 Nuclear repulsion after empirical dispersion term =      323.1964450114 Hartrees.
 Leave Link  301 at Sat Dec 13 15:06:58 2025, MaxMem=   536870912 cpu:               0.0 elap:               0.1
 (Enter D:\G16W\l302.exe)
 Do NDO integrals.
 NPDir=0 NMtPBC=     1 NCelOv=     1 NCel=       1 NClECP=     1 NCelD=      1
         NCelK=      1 NCelE2=     1 NClLst=     1 CellRange=     0.0.
 One-electron integrals computed using PRISM.
 NBasis=    59 RedAO= F EigKep=  0.00D+00  NBF=    59
 NBsUse=    59 1.00D-04 EigRej=  0.00D+00 NBFU=    59
 Leave Link  302 at Sat Dec 13 15:06:58 2025, MaxMem=   536870912 cpu:               0.0 elap:               0.2
 (Enter D:\G16W\l303.exe)
 DipDrv:  MaxL=1.
 Leave Link  303 at Sat Dec 13 15:06:58 2025, MaxMem=   536870912 cpu:               0.0 elap:               0.1
 (Enter D:\G16W\l401.exe)
 Initial guess from the checkpoint file:  ".\Gau-17780.chk"
 B after Tr=    -0.671549    0.007909    0.012995
         Rot=    1.000000   -0.000001   -0.000002    0.000000 Ang=   0.00 deg.
 Guess basis will be translated and rotated to current coordinates.
 JPrj=0 DoOrth=T DoCkMO=T.
 Leave Link  401 at Sat Dec 13 15:06:58 2025, MaxMem=   536870912 cpu:               0.0 elap:               0.2
 (Enter D:\G16W\l502.exe)
 Keep J ints in memory in canonical form, NReq=1857714.
 FoFCou: FMM=F IPFlag=           0 FMFlag=           0 FMFlg1=           0
         NFxFlg=           0 DoJE=F BraDBF=F KetDBF=F FulRan=T
         wScrn=  0.000000 ICntrl=       600 IOpCl=  2 I1Cent=           0 NGrid=           0
         NMat0=    1 NMatS0=    143 NMatT0=    0 NMatD0=    1 NMtDS0=    0 NMtDT0=    0
 Symmetry not used in FoFCou.
 Two-electron integral symmetry not used.
 Closed shell SCF:
 Using DIIS extrapolation, IDIIS=  1040.
 Overlap will be assumed to be unity.
 NGot=   536870912 LenX=   536792871 LenY=   536788830
 Requested convergence on RMS density matrix=1.00D-08 within 128 cycles.
 Requested convergence on MAX density matrix=1.00D-06.
 Requested convergence on             energy=1.00D-06.
 No special actions if energy rises.

 Cycle   1  Pass 1  IDiag  1:
 E= 0.149633339325419E-01
 DIIS: error= 2.80D-03 at cycle   1 NSaved=   1.
 NSaved= 1 IEnMin= 1 EnMin= 0.149633339325419E-01 IErMin= 1 ErrMin= 2.80D-03
 ErrMax= 2.80D-03  0.00D+00 EMaxC= 1.00D-01 BMatC= 1.26D-04 BMatP= 1.26D-04
 IDIUse=3 WtCom= 9.72D-01 WtEn= 2.80D-02
 Coeff-Com:  0.100D+01
 Coeff-En:   0.100D+01
 Coeff:      0.100D+01
 GapD=    2.000 DampG=2.000 DampE=1.000 DampFc=2.0000 IDamp=-1.
 RMSDP=4.62D-04 MaxDP=9.14D-03              OVMax= 0.00D+00

 Cycle   2  Pass 1  IDiag  3:
 E= 0.144467810491733E-01 Delta-E=       -0.000516552883 Rises=F Damp=F
 DIIS: error= 1.08D-03 at cycle   2 NSaved=   2.
 NSaved= 2 IEnMin= 2 EnMin= 0.144467810491733E-01 IErMin= 2 ErrMin= 1.08D-03
 ErrMax= 1.08D-03  0.00D+00 EMaxC= 1.00D-01 BMatC= 2.00D-05 BMatP= 1.26D-04
 IDIUse=3 WtCom= 9.89D-01 WtEn= 1.08D-02
 Coeff-Com: -0.428D+00 0.143D+01
 Coeff-En:   0.000D+00 0.100D+01
 Coeff:     -0.423D+00 0.142D+01
 Gap=     0.270 Goal=   None    Shift=    0.000
 RMSDP=3.02D-04 MaxDP=6.45D-03 DE=-5.17D-04 OVMax= 7.97D-03

 Cycle   3  Pass 1  IDiag  3:
 E= 0.143214138689132E-01 Delta-E=       -0.000125367180 Rises=F Damp=F
 DIIS: error= 2.13D-04 at cycle   3 NSaved=   3.
 NSaved= 3 IEnMin= 3 EnMin= 0.143214138689132E-01 IErMin= 3 ErrMin= 2.13D-04
 ErrMax= 2.13D-04  0.00D+00 EMaxC= 1.00D-01 BMatC= 1.53D-06 BMatP= 2.00D-05
 IDIUse=3 WtCom= 9.98D-01 WtEn= 2.13D-03
 Coeff-Com:  0.707D-01-0.418D+00 0.135D+01
 Coeff-En:   0.000D+00 0.000D+00 0.100D+01
 Coeff:      0.705D-01-0.417D+00 0.135D+01
 Gap=     0.270 Goal=   None    Shift=    0.000
 RMSDP=1.10D-04 MaxDP=2.55D-03 DE=-1.25D-04 OVMax= 3.26D-03

 Cycle   4  Pass 1  IDiag  3:
 E= 0.143083495054839E-01 Delta-E=       -0.000013064363 Rises=F Damp=F
 DIIS: error= 7.43D-05 at cycle   4 NSaved=   4.
 NSaved= 4 IEnMin= 4 EnMin= 0.143083495054839E-01 IErMin= 4 ErrMin= 7.43D-05
 ErrMax= 7.43D-05  0.00D+00 EMaxC= 1.00D-01 BMatC= 1.46D-07 BMatP= 1.53D-06
 IDIUse=1 WtCom= 1.00D+00 WtEn= 0.00D+00
 Coeff-Com:  0.163D-01-0.212D-01-0.339D+00 0.134D+01
 Coeff:      0.163D-01-0.212D-01-0.339D+00 0.134D+01
 Gap=     0.270 Goal=   None    Shift=    0.000
 RMSDP=3.96D-05 MaxDP=9.49D-04 DE=-1.31D-05 OVMax= 1.30D-03

 Cycle   5  Pass 1  IDiag  3:
 E= 0.143070753531447E-01 Delta-E=       -0.000001274152 Rises=F Damp=F
 DIIS: error= 1.33D-05 at cycle   5 NSaved=   5.
 NSaved= 5 IEnMin= 5 EnMin= 0.143070753531447E-01 IErMin= 5 ErrMin= 1.33D-05
 ErrMax= 1.33D-05  0.00D+00 EMaxC= 1.00D-01 BMatC= 9.00D-09 BMatP= 1.46D-07
 IDIUse=1 WtCom= 1.00D+00 WtEn= 0.00D+00
 Coeff-Com: -0.805D-02 0.346D-01-0.133D-01-0.351D+00 0.134D+01
 Coeff:     -0.805D-02 0.346D-01-0.133D-01-0.351D+00 0.134D+01
 Gap=     0.270 Goal=   None    Shift=    0.000
 RMSDP=8.55D-06 MaxDP=1.79D-04 DE=-1.27D-06 OVMax= 2.89D-04

 Cycle   6  Pass 1  IDiag  3:
 E= 0.143070148304787E-01 Delta-E=       -0.000000060523 Rises=F Damp=F
 DIIS: error= 1.88D-06 at cycle   6 NSaved=   6.
 NSaved= 6 IEnMin= 6 EnMin= 0.143070148304787E-01 IErMin= 6 ErrMin= 1.88D-06
 ErrMax= 1.88D-06  0.00D+00 EMaxC= 1.00D-01 BMatC= 4.34D-10 BMatP= 9.00D-09
 IDIUse=1 WtCom= 1.00D+00 WtEn= 0.00D+00
 Coeff-Com:  0.203D-02-0.990D-02 0.169D-01 0.569D-01-0.403D+00 0.134D+01
 Coeff:      0.203D-02-0.990D-02 0.169D-01 0.569D-01-0.403D+00 0.134D+01
 Gap=     0.270 Goal=   None    Shift=    0.000
 RMSDP=1.27D-06 MaxDP=1.74D-05 DE=-6.05D-08 OVMax= 2.44D-05

 Cycle   7  Pass 1  IDiag  3:
 E= 0.143070124490805E-01 Delta-E=       -0.000000002381 Rises=F Damp=F
 DIIS: error= 4.80D-07 at cycle   7 NSaved=   7.
 NSaved= 7 IEnMin= 7 EnMin= 0.143070124490805E-01 IErMin= 7 ErrMin= 4.80D-07
 ErrMax= 4.80D-07  0.00D+00 EMaxC= 1.00D-01 BMatC= 2.59D-11 BMatP= 4.34D-10
 IDIUse=1 WtCom= 1.00D+00 WtEn= 0.00D+00
 Coeff-Com: -0.305D-03 0.145D-02-0.328D-02-0.484D-02 0.632D-01-0.410D+00
 Coeff-Com:  0.135D+01
 Coeff:     -0.305D-03 0.145D-02-0.328D-02-0.484D-02 0.632D-01-0.410D+00
 Coeff:      0.135D+01
 Gap=     0.270 Goal=   None    Shift=    0.000
 RMSDP=3.14D-07 MaxDP=4.29D-06 DE=-2.38D-09 OVMax= 5.92D-06

 Cycle   8  Pass 1  IDiag  3:
 E= 0.143070123056077E-01 Delta-E=       -0.000000000143 Rises=F Damp=F
 DIIS: error= 1.44D-07 at cycle   8 NSaved=   8.
 NSaved= 8 IEnMin= 8 EnMin= 0.143070123056077E-01 IErMin= 8 ErrMin= 1.44D-07
 ErrMax= 1.44D-07  0.00D+00 EMaxC= 1.00D-01 BMatC= 1.20D-12 BMatP= 2.59D-11
 IDIUse=1 WtCom= 1.00D+00 WtEn= 0.00D+00
 Coeff-Com: -0.523D-05 0.149D-04 0.104D-03-0.703D-04-0.535D-02 0.669D-01
 Coeff-Com: -0.382D+00 0.132D+01
 Coeff:     -0.523D-05 0.149D-04 0.104D-03-0.703D-04-0.535D-02 0.669D-01
 Coeff:     -0.382D+00 0.132D+01
 Gap=     0.270 Goal=   None    Shift=    0.000
 RMSDP=6.12D-08 MaxDP=8.62D-07 DE=-1.43D-10 OVMax= 5.35D-07

 Cycle   9  Pass 1  IDiag  3:
 E= 0.143070123017992E-01 Delta-E=       -0.000000000004 Rises=F Damp=F
 DIIS: error= 4.55D-08 at cycle   9 NSaved=   9.
 NSaved= 9 IEnMin= 9 EnMin= 0.143070123017992E-01 IErMin= 9 ErrMin= 4.55D-08
 ErrMax= 4.55D-08  0.00D+00 EMaxC= 1.00D-01 BMatC= 1.13D-13 BMatP= 1.20D-12
 IDIUse=1 WtCom= 1.00D+00 WtEn= 0.00D+00
 Coeff-Com:  0.205D-04-0.976D-04 0.161D-03 0.329D-03-0.132D-02-0.837D-02
 Coeff-Com:  0.105D+00-0.636D+00 0.154D+01
 Coeff:      0.205D-04-0.976D-04 0.161D-03 0.329D-03-0.132D-02-0.837D-02
 Coeff:      0.105D+00-0.636D+00 0.154D+01
 Gap=     0.270 Goal=   None    Shift=    0.000
 RMSDP=2.28D-08 MaxDP=2.80D-07 DE=-3.81D-12 OVMax= 2.70D-07

 Cycle  10  Pass 1  IDiag  3:
 E= 0.143070122968538E-01 Delta-E=       -0.000000000005 Rises=F Damp=F
 DIIS: error= 9.83D-09 at cycle  10 NSaved=  10.
 NSaved=10 IEnMin=10 EnMin= 0.143070122968538E-01 IErMin=10 ErrMin= 9.83D-09
 ErrMax= 9.83D-09  0.00D+00 EMaxC= 1.00D-01 BMatC= 7.10D-15 BMatP= 1.13D-13
 IDIUse=1 WtCom= 1.00D+00 WtEn= 0.00D+00
 Coeff-Com: -0.677D-05 0.320D-04-0.536D-04-0.143D-03 0.833D-03-0.109D-02
 Coeff-Com: -0.136D-01 0.146D+00-0.575D+00 0.144D+01
 Coeff:     -0.677D-05 0.320D-04-0.536D-04-0.143D-03 0.833D-03-0.109D-02
 Coeff:     -0.136D-01 0.146D+00-0.575D+00 0.144D+01
 Gap=     0.270 Goal=   None    Shift=    0.000
 RMSDP=6.30D-09 MaxDP=9.25D-08 DE=-4.95D-12 OVMax= 1.07D-07

 Cycle  11  Pass 2  IDiag  1:
 SCF Done:  E(RPM7) =  0.143070122969E-01 A.U. after   11 cycles
            NFock= 10  Conv=0.63D-08     -V/T= 1.0002
 KE=-8.849206081371D+01 PE=-5.206262563345D+02 EE= 2.859361791491D+02
 Leave Link  502 at Sat Dec 13 15:06:59 2025, MaxMem=   536870912 cpu:               1.0 elap:               0.6
 (Enter D:\G16W\l801.exe)
 Range of M.O.s used for correlation:     1    59
 NBasis=    59 NAE=    29 NBE=    29 NFC=     0 NFV=     0
 NROrb=     59 NOA=    29 NOB=    29 NVA=    30 NVB=    30
 Leave Link  801 at Sat Dec 13 15:06:59 2025, MaxMem=   536870912 cpu:               0.0 elap:               0.1
 (Enter D:\G16W\l1101.exe)
 Leave Link 1101 at Sat Dec 13 15:06:59 2025, MaxMem=   536870912 cpu:               0.0 elap:               0.1
 (Enter D:\G16W\l1102.exe)
 Symmetrizing basis deriv contribution to polar:
 IMax=3 JMax=2 DiffMx= 0.00D+00
 Leave Link 1102 at Sat Dec 13 15:06:59 2025, MaxMem=   536870912 cpu:               0.0 elap:               0.1
 (Enter D:\G16W\l1110.exe)
 Leave Link 1110 at Sat Dec 13 15:07:00 2025, MaxMem=   536870912 cpu:               0.0 elap:               0.1
 (Enter D:\G16W\l1002.exe)
 Minotr:  Closed shell wavefunction.
 Leave Link 1002 at Sat Dec 13 15:07:00 2025, MaxMem=   536870912 cpu:               0.0 elap:               0.1
 (Enter D:\G16W\l701.exe)
 ... and contract with generalized density number  0.
 Compute integral first derivatives.
 R6Disp: Adding PM7 dispersion energy 1st derivatives to the gradient.
 Leave Link  701 at Sat Dec 13 15:07:00 2025, MaxMem=   536870912 cpu:               0.0 elap:               0.2
 (Enter D:\G16W\l702.exe)
 L702 exits ... SP integral derivatives will be done elsewhere.
 Leave Link  702 at Sat Dec 13 15:07:00 2025, MaxMem=   536870912 cpu:               0.0 elap:               0.1
 (Enter D:\G16W\l703.exe)
 Integral derivatives from FoFJK, PRISM(SPDF).
 Compute integral first derivatives, UseDBF=F ICtDFT=           0.
 Calling FoFJK, ICntrl=      2147 FMM=F ISym2X=0 I1Cent= 0 IOpClX= 0 NMat=1 NMatS=1 NMatT=0.
 FoFJK:  IHMeth=43 ICntrl=    2147 DoSepK=F KAlg= 0 I1Cent=           0 FoldK=F
 IRaf=         0 NMat=       1 IRICut=       1 DoRegI=T DoRafI=F ISym2E= 0 IDoP0=3 IntGTp=3.
 FoFCou: FMM=F IPFlag=           0 FMFlag=      100000 FMFlg1=         800
         NFxFlg=           0 DoJE=F BraDBF=F KetDBF=F FulRan=T
         wScrn=  0.000000 ICntrl=      2147 IOpCl=  0 I1Cent=           0 NGrid=           0
         NMat0=    1 NMatS0=      1 NMatT0=    0 NMatD0=    1 NMtDS0=    0 NMtDT0=    0
 Symmetry not used in FoFCou.
 Leave Link  703 at Sat Dec 13 15:07:00 2025, MaxMem=   536870912 cpu:               0.0 elap:               0.1
 (Enter D:\G16W\l716.exe)
 Dipole        =-5.58716500D+00 2.27656272D-01-2.06841757D-01
 Polarizability= 0.00000000D+00 0.00000000D+00 0.00000000D+00
                 0.00000000D+00 0.00000000D+00 0.00000000D+00
 -------------------------------------------------------------------
 Center     Atomic                   Forces (Hartrees/Bohr)
 Number     Number              X              Y              Z
 -------------------------------------------------------------------
      1        6           0.000024456   -0.000055983    0.000089398
      2        6           0.000725485   -0.000022711   -0.000001461
      3        7           0.002199924   -0.000086276   -0.000049630
      4        6           0.000514554    0.000032171    0.000018910
      5        6           0.000012447    0.000070505   -0.000003979
      6        6           0.000515618   -0.000094239   -0.000011582
      7        6           0.000025538    0.000004458    0.000010079
      8        1           0.000005611   -0.000028388    0.000038142
      9        1          -0.000010529   -0.000005753    0.000017357
     10        1           0.000015321   -0.000025892    0.000033579
     11        1           0.000045454    0.000004977   -0.000026389
     12        1           0.000069987    0.000023105   -0.000086357
     13        1           0.000035725   -0.000092008    0.000043685
     14        1           0.000002879    0.000030152   -0.000016149
     15        1           0.000015143    0.000042816    0.000009075
     16        1           0.000002278    0.000027139    0.000005417
     17        1          -0.000001237    0.000015841   -0.000008108
     18        1          -0.000004243   -0.000029970   -0.000039867
     19        1           0.000043145    0.000062739    0.000079705
     20        1          -0.000004819   -0.000010246   -0.000007249
     21        1          -0.000001078   -0.000012917   -0.000004284
     22        1           0.000007048   -0.000041937   -0.000007847
     23        6          -0.007423051    0.000325169   -0.000255589
     24       53           0.003266736   -0.000129759    0.000154334
     25        1          -0.000021371   -0.000081723   -0.000098530
     26        1          -0.000036104   -0.000054290    0.000126523
     27        1          -0.000024917    0.000133023   -0.000009181
 -------------------------------------------------------------------
 Cartesian Forces:  Max     0.007423051 RMS     0.000942999
 Z-matrix is all fixed cartesians, so copy forces.
 Leave Link  716 at Sat Dec 13 15:07:01 2025, MaxMem=   536870912 cpu:               0.0 elap:               0.1
 (Enter D:\G16W\l123.exe)
 IRC-IRC-IRC-IRC-IRC-IRC-IRC-IRC-IRC-IRC-IRC-IRC-IRC-IRC-IRC-IRC-IRC-IRC
 Pt  1 Step number   1 out of a maximum of  20
 Using modified Bulirsch-Stoer corrector integration.
   Using distance weighted interpolants to fit PES.
 PreDWI: IReCr0= 2 IReCr1= 1 IReCr2= 1 IReCr3= 1
 Modified Bulirsch-Stoer Extrapolation Cycles:
    EPS =    0.000010000000000
    Cycle     1 NS=    48
      PEZero:  N= 2 I= 1 D=  4.32D-04 Err=  1.22D-03
    Cycle     2 NS=    64 Truncation Error =  0.001224254
      PEZero:  N= 3 I= 2 D=  4.32D-04 Err=  8.16D-04
      PEZero:  N= 3 I= 1 D=  8.65D-04 Err=  3.42D-08
    Cycle     3 NS=    96 Truncation Error =  0.000000034
 BS completed in    3 cycles and     208 integration steps.
 Maximum DWI energy   std dev =  0.000000459 at pt     1
 Maximum DWI gradient std dev =  0.049195898 at pt     1
 SUMMARY OF CORRECTOR INTEGRATION:
   Predictor End Point Energy =     0.014307
   Old End Point Energy       =     0.014307
   Corrected End Point Energy =     0.014307
   Predictor End-Start Dist.  =     0.166033
   Old End-Start Dist.        =     0.166033
   New End-Start Dist.        =     0.166025
   New End-Old End Dist.      =     0.001427
 CORRECTOR INTEGRATION CONVERGENCE:
   Recorrection delta-x convergence threshold:    0.010000
   Delta-x Convergence Met
 Point Number:   1          Path Number:   1
                    CURRENT STRUCTURE
                Cartesian Coordinates (Ang):                
 ---------------------------------------------------------------------
 Center     Atomic                     Coordinates (Angstroms)
 Number     Number                        X           Y           Z
 ---------------------------------------------------------------------
      1          6                   -2.251095   -0.856947    2.086229
      2          6                   -3.096322   -0.053961    1.099978
      3          7                   -2.417519    0.164711   -0.223590
      4          6                   -2.767304    1.532707   -0.758972
      5          6                   -2.122568    2.665657    0.035991
      6          6                   -2.871384   -0.842185   -1.249200
      7          6                   -2.653098   -2.293610   -0.833883
      8          1                   -1.903012   -1.812288    1.675885
      9          1                   -2.833739   -1.090338    2.988282
     10          1                   -1.361095   -0.305073    2.421598
     11          1                   -3.335755    0.932367    1.562250
     12          1                   -4.077232   -0.556657    0.945784
     13          1                   -3.871762    1.663349   -0.780102
     14          1                   -2.422355    1.592831   -1.818107
     15          1                   -1.035793    2.726160   -0.129855
     16          1                   -2.279111    2.579018    1.117682
     17          1                   -2.538742    3.635739   -0.270669
     18          1                   -2.299046   -0.643013   -2.187465
     19          1                   -3.946666   -0.685214   -1.491193
     20          1                   -2.947892   -2.971103   -1.648989
     21          1                   -3.245701   -2.577816    0.043279
     22          1                   -1.598813   -2.515272   -0.613181
     23          6                   -0.535830    0.069251   -0.129122
     24         53                    2.133701   -0.040358   -0.010511
     25          1                   -0.448952    0.746799    0.712548
     26          1                   -0.382359    0.442094   -1.135481
     27          1                   -0.494604   -0.998805    0.048980
 ---------------------------------------------------------------------
   CHANGE IN THE REACTION COORDINATE =    0.16602
   NET REACTION COORDINATE UP TO THIS POINT =    0.16602
  # OF POINTS ALONG THE PATH =   1
  # OF STEPS =   1

 Calculating another point on the path.
 Point Number  2 in FORWARD path direction.
 Using LQA Reaction Path Following.
   LQA: T_Est iteration completed in    3 iterations.
[...]
 ---------------------------------------------------------------------
                    Distance matrix (angstroms):
                    1          2          3          4          5
     1  C    0.000000
     2  C    1.539839   0.000000
     3  N    2.514146   1.483329   0.000000
     4  C    3.734735   2.468889   1.494739   0.000000
     5  C    4.047669   3.084927   2.526823   1.534923   0.000000
     6  C    3.380039   2.488414   1.492083   2.418142   3.798686
     7  C    3.263867   2.997235   2.536050   3.821996   5.043801
     8  H    1.093939   2.201794   2.757782   4.185754   4.719316
     9  H    1.095856   2.175204   3.450995   4.568817   4.812750
    10  H    1.095434   2.194542   2.854800   3.878550   3.809839
    11  H    2.159723   1.113616   2.134079   2.481565   2.634380
    12  H    2.175371   1.111943   2.154615   3.046820   3.921242
    13  H    4.191368   2.711342   2.164078   1.112064   2.174620
    14  H    4.570562   3.409382   2.120973   1.114223   2.160851
    15  H    4.324876   3.663499   2.904916   2.191445   1.096468
    16  H    3.526065   2.746758   2.739085   2.199376   1.095485
    17  H    5.052580   3.977251   3.460445   2.174589   1.096291
    18  H    4.232713   3.416215   2.104227   2.611909   3.941606
    19  H    3.998295   2.844950   2.164052   2.657171   4.160451
    20  H    4.331755   4.013225   3.473164   4.588302   5.923327
    21  H    2.835959   2.732652   2.848839   4.204572   5.343325
    22  H    3.190356   3.337995   2.815903   4.178759   5.185203
    23  C    3.242705   3.352940   2.486099   3.209526   3.343881
    24  I    4.908012   5.386706   4.638238   5.218944   5.022211
    25  H    2.808199   2.908471   2.374605   2.932335   2.683193
    26  H    3.932634   3.632142   2.391032   2.751886   3.088826
    27  H    2.744362   3.074280   2.392935   3.540188   3.996179
                    6          7          8          9         10
     6  C    0.000000
     7  C    1.531787   0.000000
     8  H    3.194684   2.625381   0.000000
     9  H    4.238164   3.999844   1.768469   0.000000
    10  H    3.964081   3.990023   1.761988   1.768823   0.000000
    11  H    3.363008   4.083183   3.091855   2.526729   2.472208
    12  H    2.567818   2.906111   2.612701   2.438491   3.093104
    13  H    2.778119   4.199000   4.715439   4.843760   4.517265
    14  H    2.515013   3.984625   4.832326   5.492258   4.678852
    15  H    4.126050   5.261356   4.869240   5.196787   3.872863
    16  H    4.176840   5.228425   4.379506   4.125647   3.212252
    17  H    4.587879   5.945264   5.767996   5.735256   4.839023
    18  H    1.115824   2.161477   3.984888   5.186089   4.627370
    19  H    1.113027   2.167021   3.934917   4.682376   4.712470
    20  H    2.170993   1.096938   3.634483   4.995512   5.077575
    21  H    2.192088   1.095584   2.221390   3.315297   3.763386
    22  H    2.190846   1.096433   2.352741   4.022619   3.694129
    23  C    3.214888   3.583729   3.146285   4.313739   2.834486
    24  I    5.235021   5.336637   4.676924   5.859097   4.224626
    25  H    3.533681   4.055876   3.075744   3.804536   2.188985
    26  H    2.896631   3.600160   3.859782   5.023891   3.689115
    27  H    2.802346   2.738795   2.329392   3.798353   2.609776
                   11         12         13         14         15
    11  H    0.000000
    12  H    1.775609   0.000000
    13  H    2.564405   2.931952   0.000000
    14  H    3.574932   3.919630   1.784779   0.000000
    15  H    3.386971   4.623388   3.085695   2.437367   0.000000
    16  H    2.018584   3.636803   2.649442   3.088216   1.762693
    17  H    3.380302   4.675676   2.413852   2.576545   1.768198
    18  H    4.183953   3.646179   3.138901   2.217852   4.061164
    19  H    3.573746   2.543255   2.553711   2.779166   4.702518
    20  H    5.077064   3.760926   4.863872   4.568899   6.137662
    21  H    3.822039   2.380845   4.428041   4.610329   5.690375
    22  H    4.410310   3.539081   4.784233   4.294235   5.189196
    23  C    3.858303   4.291460   4.270421   3.305161   2.811049
    24  I    5.807659   6.348957   6.318028   5.145119   4.163041
    25  H    3.143796   3.977111   3.948258   3.330579   2.218891
    26  H    4.110659   4.474827   3.829906   2.511697   2.549959
    27  H    3.841285   3.852697   4.474683   3.719647   3.690235
                   16         17         18         19         20
    16  H    0.000000
    17  H    1.768808   0.000000
    18  H    4.554953   4.654927   0.000000
    19  H    4.544240   4.762718   1.790500   0.000000
    20  H    6.206118   6.753996   2.487987   2.480781   0.000000
    21  H    5.320793   6.250697   3.093616   2.543933   1.766945
    22  H    5.344561   6.174432   2.518582   3.095560   1.767088
    23  C    3.579169   4.364087   3.123777   4.263931   4.454474
    24  I    5.221354   5.918706   4.944105   6.318368   6.059119
    25  H    2.673871   3.735940   3.672087   4.460431   5.045207
    26  H    3.645685   3.981611   2.487738   3.872071   4.327309
    27  H    4.117201   5.058253   2.908132   3.896720   3.626544
                   21         22         23         24         25
    21  H    0.000000
    22  H    1.770290   0.000000
    23  C    4.147279   3.001440   0.000000
    24  I    5.927169   4.475223   2.152208   0.000000
    25  H    4.402642   3.636495   1.092251   2.697862   0.000000
    26  H    4.352353   3.209536   1.090502   2.696476   1.800498
    27  H    3.250498   2.013248   1.091662   2.697911   1.795803
                   26         27
    26  H    0.000000
    27  H    1.797191   0.000000
 Symmetry turned off by external request.
 Stoichiometry    C7H18IN
 Framework group  C1[X(C7H18IN)]
 Deg. of freedom    75
 Full point group                 C1      NOp   1
 Rotational constants (GHZ):           1.2829099           0.3534175           0.3267474
 Leave Link  202 at Sat Dec 13 15:09:30 2025, MaxMem=   536870912 cpu:               0.0 elap:               0.1
 (Enter D:\G16W\l601.exe)
 Copying SCF densities to generalized density rwf, IOpCl= 0 IROHF=0.

 **********************************************************************

            Population analysis using the SCF density.

 **********************************************************************

 Alpha  occ. eigenvalues --   -1.29409  -1.00478  -0.98429  -0.96265  -0.93268
 Alpha  occ. eigenvalues --   -0.80795  -0.77564  -0.76337  -0.73529  -0.62860
 Alpha  occ. eigenvalues --   -0.60228  -0.57904  -0.56450  -0.52888  -0.52274
 Alpha  occ. eigenvalues --   -0.51776  -0.50984  -0.50076  -0.49295  -0.47474
 Alpha  occ. eigenvalues --   -0.46390  -0.46094  -0.44070  -0.43906  -0.42588
 Alpha  occ. eigenvalues --   -0.40652  -0.32500  -0.31815  -0.31809
 Alpha virt. eigenvalues --    0.04748   0.09421   0.14052   0.14496   0.15178
 Alpha virt. eigenvalues --    0.17319   0.18070   0.19074   0.19510   0.19662
 Alpha virt. eigenvalues --    0.20572   0.20687   0.20759   0.21092   0.21233
 Alpha virt. eigenvalues --    0.21422   0.21725   0.21871   0.22003   0.22177
 Alpha virt. eigenvalues --    0.22663   0.24256   0.25084   0.25496   0.25829
 Alpha virt. eigenvalues --    4.58217   4.58229   4.58464   4.58464   4.59128
          Condensed to atoms (all electrons):
               1          2          3          4          5          6
     1  C    4.448904   0.000000   0.000000   0.000000   0.000000   0.000000
     2  C    0.000000   4.087417   0.000000   0.000000   0.000000   0.000000
     3  N    0.000000   0.000000   5.462028   0.000000   0.000000   0.000000
     4  C    0.000000   0.000000   0.000000   4.095814   0.000000   0.000000
     5  C    0.000000   0.000000   0.000000   0.000000   4.450685   0.000000
     6  C    0.000000   0.000000   0.000000   0.000000   0.000000   4.092214
     7  C    0.000000   0.000000   0.000000   0.000000   0.000000   0.000000
     8  H    0.000000   0.000000   0.000000   0.000000   0.000000   0.000000
     9  H    0.000000   0.000000   0.000000   0.000000   0.000000   0.000000
    10  H    0.000000   0.000000   0.000000   0.000000   0.000000   0.000000
    11  H    0.000000   0.000000   0.000000   0.000000   0.000000   0.000000
    12  H    0.000000   0.000000   0.000000   0.000000   0.000000   0.000000
    13  H    0.000000   0.000000   0.000000   0.000000   0.000000   0.000000
    14  H    0.000000   0.000000   0.000000   0.000000   0.000000   0.000000
    15  H    0.000000   0.000000   0.000000   0.000000   0.000000   0.000000
    16  H    0.000000   0.000000   0.000000   0.000000   0.000000   0.000000
    17  H    0.000000   0.000000   0.000000   0.000000   0.000000   0.000000
    18  H    0.000000   0.000000   0.000000   0.000000   0.000000   0.000000
    19  H    0.000000   0.000000   0.000000   0.000000   0.000000   0.000000
    20  H    0.000000   0.000000   0.000000   0.000000   0.000000   0.000000
    21  H    0.000000   0.000000   0.000000   0.000000   0.000000   0.000000
    22  H    0.000000   0.000000   0.000000   0.000000   0.000000   0.000000
    23  C    0.000000   0.000000   0.000000   0.000000   0.000000   0.000000
    24  I    0.000000   0.000000   0.000000   0.000000   0.000000   0.000000
    25  H    0.000000   0.000000   0.000000   0.000000   0.000000   0.000000
    26  H    0.000000   0.000000   0.000000   0.000000   0.000000   0.000000
    27  H    0.000000   0.000000   0.000000   0.000000   0.000000   0.000000
               7          8          9         10         11         12
     1  C    0.000000   0.000000   0.000000   0.000000   0.000000   0.000000
     2  C    0.000000   0.000000   0.000000   0.000000   0.000000   0.000000
     3  N    0.000000   0.000000   0.000000   0.000000   0.000000   0.000000
     4  C    0.000000   0.000000   0.000000   0.000000   0.000000   0.000000
     5  C    0.000000   0.000000   0.000000   0.000000   0.000000   0.000000
     6  C    0.000000   0.000000   0.000000   0.000000   0.000000   0.000000
     7  C    4.449691   0.000000   0.000000   0.000000   0.000000   0.000000
     8  H    0.000000   0.848350   0.000000   0.000000   0.000000   0.000000
     9  H    0.000000   0.000000   0.857160   0.000000   0.000000   0.000000
    10  H    0.000000   0.000000   0.000000   0.849603   0.000000   0.000000
    11  H    0.000000   0.000000   0.000000   0.000000   0.867814   0.000000
    12  H    0.000000   0.000000   0.000000   0.000000   0.000000   0.882760
    13  H    0.000000   0.000000   0.000000   0.000000   0.000000   0.000000
    14  H    0.000000   0.000000   0.000000   0.000000   0.000000   0.000000
    15  H    0.000000   0.000000   0.000000   0.000000   0.000000   0.000000
    16  H    0.000000   0.000000   0.000000   0.000000   0.000000   0.000000
    17  H    0.000000   0.000000   0.000000   0.000000   0.000000   0.000000
    18  H    0.000000   0.000000   0.000000   0.000000   0.000000   0.000000
    19  H    0.000000   0.000000   0.000000   0.000000   0.000000   0.000000
    20  H    0.000000   0.000000   0.000000   0.000000   0.000000   0.000000
    21  H    0.000000   0.000000   0.000000   0.000000   0.000000   0.000000
    22  H    0.000000   0.000000   0.000000   0.000000   0.000000   0.000000
    23  C    0.000000   0.000000   0.000000   0.000000   0.000000   0.000000
    24  I    0.000000   0.000000   0.000000   0.000000   0.000000   0.000000
    25  H    0.000000   0.000000   0.000000   0.000000   0.000000   0.000000
    26  H    0.000000   0.000000   0.000000   0.000000   0.000000   0.000000
    27  H    0.000000   0.000000   0.000000   0.000000   0.000000   0.000000
              13         14         15         16         17         18
     1  C    0.000000   0.000000   0.000000   0.000000   0.000000   0.000000
     2  C    0.000000   0.000000   0.000000   0.000000   0.000000   0.000000
     3  N    0.000000   0.000000   0.000000   0.000000   0.000000   0.000000
     4  C    0.000000   0.000000   0.000000   0.000000   0.000000   0.000000
     5  C    0.000000   0.000000   0.000000   0.000000   0.000000   0.000000
     6  C    0.000000   0.000000   0.000000   0.000000   0.000000   0.000000
     7  C    0.000000   0.000000   0.000000   0.000000   0.000000   0.000000
     8  H    0.000000   0.000000   0.000000   0.000000   0.000000   0.000000
     9  H    0.000000   0.000000   0.000000   0.000000   0.000000   0.000000
    10  H    0.000000   0.000000   0.000000   0.000000   0.000000   0.000000
    11  H    0.000000   0.000000   0.000000   0.000000   0.000000   0.000000
    12  H    0.000000   0.000000   0.000000   0.000000   0.000000   0.000000
    13  H    0.885993   0.000000   0.000000   0.000000   0.000000   0.000000
    14  H    0.000000   0.864681   0.000000   0.000000   0.000000   0.000000
    15  H    0.000000   0.000000   0.845817   0.000000   0.000000   0.000000
    16  H    0.000000   0.000000   0.000000   0.848867   0.000000   0.000000
    17  H    0.000000   0.000000   0.000000   0.000000   0.852700   0.000000
    18  H    0.000000   0.000000   0.000000   0.000000   0.000000   0.863991
    19  H    0.000000   0.000000   0.000000   0.000000   0.000000   0.000000
    20  H    0.000000   0.000000   0.000000   0.000000   0.000000   0.000000
    21  H    0.000000   0.000000   0.000000   0.000000   0.000000   0.000000
    22  H    0.000000   0.000000   0.000000   0.000000   0.000000   0.000000
    23  C    0.000000   0.000000   0.000000   0.000000   0.000000   0.000000
    24  I    0.000000   0.000000   0.000000   0.000000   0.000000   0.000000
    25  H    0.000000   0.000000   0.000000   0.000000   0.000000   0.000000
    26  H    0.000000   0.000000   0.000000   0.000000   0.000000   0.000000
    27  H    0.000000   0.000000   0.000000   0.000000   0.000000   0.000000
              19         20         21         22         23         24
     1  C    0.000000   0.000000   0.000000   0.000000   0.000000   0.000000
     2  C    0.000000   0.000000   0.000000   0.000000   0.000000   0.000000
     3  N    0.000000   0.000000   0.000000   0.000000   0.000000   0.000000
     4  C    0.000000   0.000000   0.000000   0.000000   0.000000   0.000000
     5  C    0.000000   0.000000   0.000000   0.000000   0.000000   0.000000
     6  C    0.000000   0.000000   0.000000   0.000000   0.000000   0.000000
     7  C    0.000000   0.000000   0.000000   0.000000   0.000000   0.000000
     8  H    0.000000   0.000000   0.000000   0.000000   0.000000   0.000000
     9  H    0.000000   0.000000   0.000000   0.000000   0.000000   0.000000
    10  H    0.000000   0.000000   0.000000   0.000000   0.000000   0.000000
    11  H    0.000000   0.000000   0.000000   0.000000   0.000000   0.000000
    12  H    0.000000   0.000000   0.000000   0.000000   0.000000   0.000000
    13  H    0.000000   0.000000   0.000000   0.000000   0.000000   0.000000
    14  H    0.000000   0.000000   0.000000   0.000000   0.000000   0.000000
    15  H    0.000000   0.000000   0.000000   0.000000   0.000000   0.000000
    16  H    0.000000   0.000000   0.000000   0.000000   0.000000   0.000000
    17  H    0.000000   0.000000   0.000000   0.000000   0.000000   0.000000
    18  H    0.000000   0.000000   0.000000   0.000000   0.000000   0.000000
    19  H    0.887402   0.000000   0.000000   0.000000   0.000000   0.000000
    20  H    0.000000   0.852510   0.000000   0.000000   0.000000   0.000000
    21  H    0.000000   0.000000   0.848892   0.000000   0.000000   0.000000
    22  H    0.000000   0.000000   0.000000   0.847156   0.000000   0.000000
    23  C    0.000000   0.000000   0.000000   0.000000   4.369656   0.000000
    24  I    0.000000   0.000000   0.000000   0.000000   0.000000   7.149922
    25  H    0.000000   0.000000   0.000000   0.000000   0.000000   0.000000
    26  H    0.000000   0.000000   0.000000   0.000000   0.000000   0.000000
    27  H    0.000000   0.000000   0.000000   0.000000   0.000000   0.000000
              25         26         27
     1  C    0.000000   0.000000   0.000000
     2  C    0.000000   0.000000   0.000000
     3  N    0.000000   0.000000   0.000000
     4  C    0.000000   0.000000   0.000000
     5  C    0.000000   0.000000   0.000000
     6  C    0.000000   0.000000   0.000000
     7  C    0.000000   0.000000   0.000000
     8  H    0.000000   0.000000   0.000000
     9  H    0.000000   0.000000   0.000000
    10  H    0.000000   0.000000   0.000000
    11  H    0.000000   0.000000   0.000000
    12  H    0.000000   0.000000   0.000000
    13  H    0.000000   0.000000   0.000000
    14  H    0.000000   0.000000   0.000000
    15  H    0.000000   0.000000   0.000000
    16  H    0.000000   0.000000   0.000000
    17  H    0.000000   0.000000   0.000000
    18  H    0.000000   0.000000   0.000000
    19  H    0.000000   0.000000   0.000000
    20  H    0.000000   0.000000   0.000000
    21  H    0.000000   0.000000   0.000000
    22  H    0.000000   0.000000   0.000000
    23  C    0.000000   0.000000   0.000000
    24  I    0.000000   0.000000   0.000000
    25  H    0.826144   0.000000   0.000000
    26  H    0.000000   0.835126   0.000000
    27  H    0.000000   0.000000   0.828705
 Mulliken charges:
               1
     1  C   -0.448904
     2  C   -0.087417
     3  N   -0.462028
     4  C   -0.095814
     5  C   -0.450685
     6  C   -0.092214
     7  C   -0.449691
     8  H    0.151650
     9  H    0.142840
    10  H    0.150397
    11  H    0.132186
    12  H    0.117240
    13  H    0.114007
    14  H    0.135319
    15  H    0.154183
    16  H    0.151133
    17  H    0.147300
    18  H    0.136009
    19  H    0.112598
    20  H    0.147490
    21  H    0.151108
    22  H    0.152844
    23  C   -0.369656
    24  I   -0.149922
    25  H    0.173856
    26  H    0.164874
    27  H    0.171295
 Sum of Mulliken charges =   0.00000
 Mulliken charges with hydrogens summed into heavy atoms:
               1
     1  C   -0.004017
     2  C    0.162008
     3  N   -0.462028
     4  C    0.153512
     5  C    0.001932
     6  C    0.156393
     7  C    0.001752
    23  C    0.140369
    24  I   -0.149922
 APT charges:
               1
     1  C   -0.448904
     2  C   -0.087417
     3  N   -0.462028
     4  C   -0.095814
     5  C   -0.450685
     6  C   -0.092214
     7  C   -0.449691
     8  H    0.151650
     9  H    0.142840
    10  H    0.150397
    11  H    0.132186
    12  H    0.117240
    13  H    0.114007
    14  H    0.135319
    15  H    0.154183
    16  H    0.151133
    17  H    0.147300
    18  H    0.136009
    19  H    0.112598
    20  H    0.147490
    21  H    0.151108
    22  H    0.152844
    23  C   -0.369656
    24  I   -0.149922
    25  H    0.173856
    26  H    0.164874
    27  H    0.171295
 Sum of APT charges =   0.00000
 APT charges with hydrogens summed into heavy atoms:
               1
     1  C   -0.004017
     2  C    0.162008
     3  N   -0.462028
     4  C    0.153512
     5  C    0.001932
     6  C    0.156393
     7  C    0.001752
    23  C    0.140369
    24  I   -0.149922
 Charge=              0.0000 electrons
 Dipole moment (field-independent basis, Debye):
    X=             -4.9717    Y=              0.2373    Z=             -0.3057  Tot=              4.9868
 N-N= 3.207976523231D+02 E-N=-5.177935436204D+02  KE=-8.828586715961D+01
  Exact polarizability:   0.000   0.000   0.000   0.000   0.000   0.000
 Approx polarizability:  57.458  -0.245  41.776   0.317  -0.089  40.459
 Leave Link  601 at Sat Dec 13 15:09:31 2025, MaxMem=   536870912 cpu:               1.0 elap:               0.2
 (Enter D:\G16W\l9999.exe)

 This type of calculation cannot be archived.


 THE WHOLE OF SCIENCE IS NOTHING MORE THAN A REFINEMENT OF EVERYDAY THINKING.
                                                              -- A. EINSTEIN
 Job cpu time:       0 days  0 hours  2 minutes 38.0 seconds.
 Elapsed time:       0 days  0 hours  1 minutes 59.9 seconds.
 File lengths (MBytes):  RWF=     40 Int=      0 D2E=      0 Chk=      7 Scr=      1
 Normal termination of Gaussian 16 at Sat Dec 13 15:09:31 2025.
