 Entering Gaussian System, Link 0=g16.exe
 Input=nh3_ts.gjf
 Output=nh3_ts.log
 Initial command:
 D:\G16W\l1.exe ".\Gau-19272.inp" "nh3_ts.log" /scrdir=".\"
 Entering Link 1 = D:\G16W\l1.exe PID=     19520.
  
 Copyright (c) 1988,1990,1992,1993,1995,1998,2003,2009,2016,
            Gaussian, Inc.  All Rights Reserved.
  
 This is part of the Gaussian(R) 16 program.  It is based on
 the Gaussian(R) 09 system (copyright 2009, Gaussian, Inc.),
 the Gaussian(R) 03 system (copyright 2003, Gaussian, Inc.),
 the Gaussian(R) 98 system (copyright 1998, Gaussian, Inc.),
 the Gaussian(R) 94 system (copyright 1995, Gaussian, Inc.),
 the Gaussian 92(TM) system (copyright 1992, Gaussian, Inc.),
 the Gaussian 90(TM) system (copyright 1990, Gaussian, Inc.),
 the Gaussian 88(TM) system (copyright 1988, Gaussian, Inc.),
 the Gaussian 86(TM) system (copyright 1986, Carnegie Mellon
 University), and the Gaussian 82(TM) system (copyright 1983,
 Carnegie Mellon University). Gaussian is a federally registered
 trademark of Gaussian, Inc.
  
 This software contains proprietary and confidential information,
 including trade secrets, belonging to Gaussian, Inc.
  
 This software is provided under written license and may be
 used, copied, transmitted, or stored only in accord with that
 written license.
  
 The following legend is applicable only to US Government
 contracts under FAR:
  
                    RESTRICTED RIGHTS LEGEND
  
 Use, reproduction and disclosure by the US Government is
 subject to restrictions as set forth in subparagraphs (a)
 and (c) of the Commercial Computer Software - Restricted
 Rights clause in FAR 52.227-19.
  
 Gaussian, Inc.
 340 Quinnipiac St., Bldg. 40, Wallingford CT 06492
  
  
 ---------------------------------------------------------------
 Warning -- This program may not be used in any manner that
 competes with the business of Gaussian, Inc. or will provide
 assistance to any competitor of Gaussian, Inc.  The licensee
 of this program is prohibited from giving any competitor of
 Gaussian, Inc. access to this program.  By using this program,
 the user acknowledges that Gaussian, Inc. is engaged in the
 business of creating and licensing software in the field of
 computational chemistry and represents and warrants to the
 licensee that it is not a competitor of Gaussian, Inc. and that
 it will not use this program in any manner prohibited above.
 ---------------------------------------------------------------
  

 Cite this work as:
 Gaussian 16, Revision A.03,
 M. J. Frisch, G. W. Trucks, H. B. Schlegel, G. E. Scuseria, 
 M. A. Robb, J. R. Cheeseman, G. Scalmani, V. Barone, 
 G. A. Petersson, H. Nakatsuji, X. Li, M. Caricato, A. V. Marenich, 
 J. Bloino, B. G. Janesko, R. Gomperts, B. Mennucci, H. P. Hratchian, 
 J. V. Ortiz, A. F. Izmaylov, J. L. Sonnenberg, D. Williams-Young, 
 F. Ding, F. Lipparini, F. Egidi, J. Goings, B. Peng, A. Petrone, 
 T. Henderson, D. Ranasinghe, V. G. Zakrzewski, J. Gao, N. Rega, 
 G. Zheng, W. Liang, M. Hada, M. Ehara, K. Toyota, R. Fukuda, 
 J. Hasegawa, M. Ishida, T. Nakajima, Y. Honda, O. Kitao, H. Nakai, 
 T. Vreven, K. Throssell, J. A. Montgomery, Jr., J. E. Peralta, 
 F. Ogliaro, M. J. Bearpark, J. J. Heyd, E. N. Brothers, K. N. Kudin, 
 V. N. Staroverov, T. A. Keith, R. Kobayashi, J. Normand, 
 K. Raghavachari, A. P. Rendell, J. C. Burant, S. S. Iyengar, 
 J. Tomasi, M. Cossi, J. M. Millam, M. Klene, C. Adamo, R. Cammi, 
 J. W. Ochterski, R. L. Martin, K. Morokuma, O. Farkas, 
 J. B. Foresman, and D. J. Fox, Gaussian, Inc., Wallingford CT, 2016.
 
 ******************************************
 Gaussian 16:  EM64W-G16RevA.03 17-Dec-2016
                11-Dec-2025 
 ******************************************
 %nproc=2
 Will use up to    2 processors via shared memory.
 %mem=2GB
 --------------------------
 #PM7 opt(ts,noeig,calcall)
 --------------------------
 1/5=1,10=4,11=1,18=20,26=1,38=1/1,3;
 2/9=110,12=2,17=6,18=5,40=1/2;
 3/5=2,25=1,41=4200000,71=2,140=1/1,2,3;
 4/35=1/1;
 5/5=2,35=1,38=5/2;
 8/6=4,10=90,11=11/1;
 11/6=1,8=1,9=11,15=111,16=1/1,2,10;
 10/6=1/2;
 6/7=2,8=2,9=2,10=2,18=1,28=1/1;
 7/10=1,25=1/1,2,3,16;
 1/5=1,10=4,11=1,18=20,26=1/3(3);
 2/9=110/2;
 7/8=1,9=1,25=1,44=-1/16;
 99//99;
 2/9=110/2;
 3/5=2,25=1,41=4200000,71=2,135=20,140=1/1,2,3;
 4/5=5,16=3,35=1/1;
 5/5=2,35=1,38=5/2;
 8/6=4,10=90,11=11/1;
 11/6=1,8=1,9=11,15=111,16=1/1,2,10;
 10/6=1/2;
 7/10=1,25=1/1,2,3,16;
 1/5=1,10=4,11=1,18=20,26=1/3(-8);
 2/9=110/2;
 6/7=2,8=2,9=2,10=2,18=1,19=2,28=1/1;
 7/8=1,9=1,25=1,44=-1/16;
 99//99;
 Leave Link    1 at Thu Dec 11 19:54:48 2025, MaxMem=   268435456 cpu:               0.0 elap:               0.1
 (Enter D:\G16W\l101.exe)
 -------------------
 title: NH3_TS_Final
 -------------------
 Symbolic Z-matrix:
 Charge =  0 Multiplicity = 1
 N                     3.59937   0.00011   0.00008 
 H                     3.93078   0.95588  -0.03279 
 H                     3.93149  -0.4489    0.8442 
 H                     3.93204  -0.50602  -0.8108 
 C                     1.79771  -0.00026  -0.00019 
 I                    -0.99407   0.00001   0.00001 
 H                     1.63651   0.50556  -0.94997 
 H                     1.63615   0.56929   0.91276 
 H                     1.63696  -1.07572   0.03657 
 
 Add virtual bond connecting atoms C5         and N1         Dist= 3.40D+00.
 Add virtual bond connecting atoms I6         and C5         Dist= 5.28D+00.
 Add virtual bond connecting atoms I6         and H7         Dist= 5.37D+00.
 Add virtual bond connecting atoms I6         and H8         Dist= 5.37D+00.
 Add virtual bond connecting atoms I6         and H9         Dist= 5.37D+00.
 Add atom      6 valence  4 ND=      0 dihedral       5      6      7      8
 Add atom      6 valence  4 ND=      0 dihedral       5      6      7      9
 Add atom      6 valence  4 ND=      0 dihedral       5      6      8      9
 ITRead=  0  0  0  0  0  0  0  0  0
 MicOpt= -1 -1 -1 -1 -1 -1 -1 -1 -1
 NAtoms=      9 NQM=        9 NQMF=       0 NMMI=      0 NMMIF=      0
                NMic=       0 NMicF=      0.
                    Isotopes and Nuclear Properties:
 (Nuclear quadrupole moments (NQMom) in fm**2, nuclear magnetic moments (NMagM)
  in nuclear magnetons)

  Atom         1           2           3           4           5           6           7           8           9
 IAtWgt=          14           1           1           1          12         127           1           1           1
 AtmWgt=  14.0030740   1.0078250   1.0078250   1.0078250  12.0000000 126.9004000   1.0078250   1.0078250   1.0078250
 NucSpn=           2           1           1           1           0           5           1           1           1
 AtZEff=   0.0000000   0.0000000   0.0000000   0.0000000   0.0000000   0.0000000   0.0000000   0.0000000   0.0000000
 NQMom=    2.0440000   0.0000000   0.0000000   0.0000000   0.0000000 -71.0000000   0.0000000   0.0000000   0.0000000
 NMagM=    0.4037610   2.7928460   2.7928460   2.7928460   0.0000000   2.8132800   2.7928460   2.7928460   2.7928460
 AtZNuc=   7.0000000   1.0000000   1.0000000   1.0000000   6.0000000  53.0000000   1.0000000   1.0000000   1.0000000
 Leave Link  101 at Thu Dec 11 19:54:48 2025, MaxMem=   268435456 cpu:               0.0 elap:               0.1
 (Enter D:\G16W\l103.exe)

 GradGradGradGradGradGradGradGradGradGradGradGradGradGradGradGradGradGrad
 Berny optimization.
 Initialization pass.
                           ----------------------------
                           !    Initial Parameters    !
                           ! (Angstroms and Degrees)  !
 --------------------------                            --------------------------
 ! Name  Definition              Value          Derivative Info.                !
 --------------------------------------------------------------------------------
 ! R1    R(1,2)                  1.0121         calculate D2E/DX2 analytically  !
 ! R2    R(1,3)                  1.0122         calculate D2E/DX2 analytically  !
 ! R3    R(1,4)                  1.0121         calculate D2E/DX2 analytically  !
 ! R4    R(1,5)                  1.8017         calculate D2E/DX2 analytically  !
 ! R5    R(5,6)                  2.7918         calculate D2E/DX2 analytically  !
 ! R6    R(5,7)                  1.0881         calculate D2E/DX2 analytically  !
 ! R7    R(5,8)                  1.0881         calculate D2E/DX2 analytically  !
 ! R8    R(5,9)                  1.088          calculate D2E/DX2 analytically  !
 ! R9    R(6,7)                  2.8422         calculate D2E/DX2 analytically  !
 ! R10   R(6,8)                  2.8417         calculate D2E/DX2 analytically  !
 ! R11   R(6,9)                  2.8427         calculate D2E/DX2 analytically  !
 ! A1    A(2,1,3)              109.7891         calculate D2E/DX2 analytically  !
 ! A2    A(2,1,4)              109.7911         calculate D2E/DX2 analytically  !
 ! A3    A(2,1,5)              109.1244         calculate D2E/DX2 analytically  !
 ! A4    A(3,1,4)              109.784          calculate D2E/DX2 analytically  !
 ! A5    A(3,1,5)              109.1573         calculate D2E/DX2 analytically  !
 ! A6    A(4,1,5)              109.1758         calculate D2E/DX2 analytically  !
 ! A7    A(1,5,7)               98.5215         calculate D2E/DX2 analytically  !
 ! A8    A(1,5,8)               98.5253         calculate D2E/DX2 analytically  !
 ! A9    A(1,5,9)               98.5074         calculate D2E/DX2 analytically  !
 ! A10   A(7,5,8)              117.8441         calculate D2E/DX2 analytically  !
 ! A11   A(7,5,9)              117.8462         calculate D2E/DX2 analytically  !
 ! A12   A(8,5,9)              117.8464         calculate D2E/DX2 analytically  !
 ! A13   A(7,6,8)               38.2843         calculate D2E/DX2 analytically  !
 ! A14   A(7,6,9)               38.2766         calculate D2E/DX2 analytically  !
 ! A15   A(8,6,9)               38.2804         calculate D2E/DX2 analytically  !
 ! A16   L(1,5,6,7,-1)         180.0029         calculate D2E/DX2 analytically  !
 ! A17   L(1,5,6,7,-2)         180.0213         calculate D2E/DX2 analytically  !
 ! D1    D(2,1,5,7)             59.9873         calculate D2E/DX2 analytically  !
 ! D2    D(2,1,5,8)            -60.014          calculate D2E/DX2 analytically  !
 ! D3    D(2,1,5,9)            179.9861         calculate D2E/DX2 analytically  !
 ! D4    D(3,1,5,7)            179.9746         calculate D2E/DX2 analytically  !
 ! D5    D(3,1,5,8)             59.9733         calculate D2E/DX2 analytically  !
 ! D6    D(3,1,5,9)            -60.0266         calculate D2E/DX2 analytically  !
 ! D7    D(4,1,5,7)            -60.0134         calculate D2E/DX2 analytically  !
 ! D8    D(4,1,5,8)            179.9853         calculate D2E/DX2 analytically  !
 ! D9    D(4,1,5,9)             59.9853         calculate D2E/DX2 analytically  !
 ! D10   D(5,6,7,8)            -31.9549         calculate D2E/DX2 analytically  !
 ! D11   D(5,6,7,9)             31.9557         calculate D2E/DX2 analytically  !
 ! D12   D(5,6,8,9)            -31.9502         calculate D2E/DX2 analytically  !
 --------------------------------------------------------------------------------
 Trust Radius=3.00D-01 FncErr=1.00D-07 GrdErr=1.00D-07 EigMax=2.50D+02 EigMin=1.00D-04
 Number of steps in this run=     50 maximum allowed number of steps=    100.
 Search for a saddle point of order  1.
 GradGradGradGradGradGradGradGradGradGradGradGradGradGradGradGradGradGrad

 Leave Link  103 at Thu Dec 11 19:54:48 2025, MaxMem=   268435456 cpu:               0.0 elap:               0.0
 (Enter D:\G16W\l202.exe)
                          Input orientation:                          
 ---------------------------------------------------------------------
 Center     Atomic      Atomic             Coordinates (Angstroms)
 Number     Number       Type             X           Y           Z
 ---------------------------------------------------------------------
      1          7           0        3.599373    0.000110    0.000078
      2          1           0        3.930777    0.955879   -0.032791
      3          1           0        3.931491   -0.448899    0.844198
      4          1           0        3.932037   -0.506020   -0.810795
      5          6           0        1.797708   -0.000257   -0.000187
      6         53           0       -0.994072    0.000013    0.000011
      7          1           0        1.636513    0.505555   -0.949966
      8          1           0        1.636151    0.569286    0.912764
      9          1           0        1.636962   -1.075721    0.036569
 ---------------------------------------------------------------------
                    Distance matrix (angstroms):
                    1          2          3          4          5
     1  N    0.000000
     2  H    1.012128   0.000000
     3  H    1.012151   1.656053   0.000000
     4  H    1.012101   1.656032   1.655979   0.000000
     5  C    1.801665   2.337786   2.338225   2.338427   0.000000
     6  I    4.593445   5.016861   5.017504   5.017970   2.791780
     7  H    2.238499   2.511503   3.065441   2.512386   1.088076
     8  H    2.238570   2.511740   2.511969   3.065621   1.088099
     9  H    2.238258   3.064930   2.511978   2.511962   1.088032
                    6          7          8          9
     6  I    0.000000
     7  H    2.842183   0.000000
     8  H    2.841701   1.863820   0.000000
     9  H    2.842689   1.863783   1.863804   0.000000
 This structure is nearly, but not quite of a higher symmetry.
 Consider Symm=Loose if the higher symmetry is desired.
 Stoichiometry    CH6IN
 Framework group  C1[X(CH6IN)]
 Deg. of freedom    21
 Full point group                 C1      NOp   1
 Largest Abelian subgroup         C1      NOp   1
 Largest concise Abelian subgroup C1      NOp   1
                         Standard orientation:                         
 ---------------------------------------------------------------------
 Center     Atomic      Atomic             Coordinates (Angstroms)
 Number     Number       Type             X           Y           Z
 ---------------------------------------------------------------------
      1          7           0       -0.000187   -0.030945    3.599240
      2          1           0       -0.041267   -0.989201    3.922444
      3          1           0        0.847724    0.407954    3.935193
      4          1           0       -0.806719    0.479245    3.936228
      5          6           0       -0.000317   -0.015142    1.797645
      6         53           0        0.000084    0.008503   -0.994035
      7          1           0       -0.954382   -0.511399    1.632122
      8          1           0        0.907734   -0.591080    1.631214
      9          1           0        0.045663    1.061306    1.646118
 ---------------------------------------------------------------------
 Rotational constants (GHZ):          80.6695210           1.2801267           1.2801264
 Leave Link  202 at Thu Dec 11 19:54:48 2025, MaxMem=   268435456 cpu:               0.0 elap:               0.0
 (Enter D:\G16W\l301.exe)
 Standard basis: VSTO-6G (5D, 7F)
 Ernie: Thresh=  0.10000D-02 Tol=  0.10000D-05 Strict=F.
 EHB=         0.000000000 Number of Hydrogen Bonds=     0
  NNHCO=     0 NNPyr=     0 NCTC=     0               EPep=         0.000000000
    EC=        37.377572060  ECS=         1.245395375   EG=         0.224092225
   EHC=         0.000460195  EAt=       -21.558449737  AtH=         0.991250372
 EPDDG=         0.000000000  ECC=        38.847519856 EAtT=        22.549700110
  EHyb=         0.000000000
 There are    24 symmetry adapted cartesian basis functions of A   symmetry.
 There are    23 symmetry adapted basis functions of A   symmetry.
    23 basis functions,   144 primitive gaussians,    24 cartesian basis functions
    11 alpha electrons       11 beta electrons
       nuclear repulsion energy        61.3972199657 Hartrees.
 IExCor=    0 DFT=F Ex=HF Corr=None ExCW=0 ScaHFX=  1.000000
 ScaDFX=  1.000000  1.000000  1.000000  1.000000 ScalE2=  1.000000  1.000000
 IRadAn=      5 IRanWt=     -1 IRanGd=            0 ICorTp=0 IEmpDi=251
 Integral buffers will be    131072 words long.
 Regular integral format.
 Two-electron integral symmetry is turned off.
 R6Disp:  PM7 Dispersion energy=       -0.0007544755 Hartrees.
 Nuclear repulsion after empirical dispersion term =       61.3964654902 Hartrees.
 Leave Link  301 at Thu Dec 11 19:54:49 2025, MaxMem=   268435456 cpu:               1.0 elap:               0.1
 (Enter D:\G16W\l302.exe)
 Do NDO integrals.
 NPDir=0 NMtPBC=     1 NCelOv=     1 NCel=       1 NClECP=     1 NCelD=      1
         NCelK=      1 NCelE2=     1 NClLst=     1 CellRange=     0.0.
 One-electron integrals computed using PRISM.
 NBasis=    23 RedAO= F EigKep=  0.00D+00  NBF=    23
 NBsUse=    23 1.00D-04 EigRej=  0.00D+00 NBFU=    23
 Leave Link  302 at Thu Dec 11 19:54:49 2025, MaxMem=   268435456 cpu:               0.0 elap:               0.1
 (Enter D:\G16W\l303.exe)
 DipDrv:  MaxL=1.
 Leave Link  303 at Thu Dec 11 19:54:49 2025, MaxMem=   268435456 cpu:               0.0 elap:               0.1
 (Enter D:\G16W\l401.exe)
 Nonelectrostatic core Hamiltonian diagonalized for initial guess.
 JPrj=0 DoOrth=F DoCkMO=F.
 Leave Link  401 at Thu Dec 11 19:54:49 2025, MaxMem=   268435456 cpu:               0.0 elap:               0.0
 (Enter D:\G16W\l502.exe)
 Keep J ints in memory in canonical form, NReq=1849434.
 FoFCou: FMM=F IPFlag=           0 FMFlag=           0 FMFlg1=           0
         NFxFlg=           0 DoJE=F BraDBF=F KetDBF=F FulRan=T
         wScrn=  0.000000 ICntrl=       600 IOpCl=  2 I1Cent=           0 NGrid=           0
         NMat0=    1 NMatS0=     71 NMatT0=    0 NMatD0=    1 NMtDS0=    0 NMtDT0=    0
 Symmetry not used in FoFCou.
 Two-electron integral symmetry not used.
 Closed shell SCF:
 Using DIIS extrapolation, IDIIS=  1040.
 Overlap will be assumed to be unity.
 NGot=   268435456 LenX=   268372139 LenY=   268371122
 Requested convergence on RMS density matrix=1.00D-08 within 128 cycles.
 Requested convergence on MAX density matrix=1.00D-06.
 Requested convergence on             energy=1.00D-06.
 No special actions if energy rises.

 Cycle   1  Pass 1  IDiag  1:
 E= 0.316794031110923    
 DIIS: error= 3.74D-02 at cycle   1 NSaved=   1.
 NSaved= 1 IEnMin= 1 EnMin= 0.316794031110923     IErMin= 1 ErrMin= 3.74D-02
 ErrMax= 3.74D-02  0.00D+00 EMaxC= 1.00D-01 BMatC= 5.26D-02 BMatP= 5.26D-02
 IDIUse=3 WtCom= 6.26D-01 WtEn= 3.74D-01
 Coeff-Com:  0.100D+01
 Coeff-En:   0.100D+01
 Coeff:      0.100D+01
 GapD=    2.000 DampG=2.000 DampE=0.500 DampFc=1.0000 IDamp=-1.
 RMSDP=2.22D-02 MaxDP=1.74D-01              OVMax= 0.00D+00

 Cycle   2  Pass 1  IDiag  1:
 E= 0.101164473421029     Delta-E=       -0.215629557690 Rises=F Damp=F
 DIIS: error= 1.96D-02 at cycle   2 NSaved=   2.
 NSaved= 2 IEnMin= 2 EnMin= 0.101164473421029     IErMin= 2 ErrMin= 1.96D-02
 ErrMax= 1.96D-02  0.00D+00 EMaxC= 1.00D-01 BMatC= 1.13D-02 BMatP= 5.26D-02
 IDIUse=3 WtCom= 8.04D-01 WtEn= 1.96D-01
 Coeff-Com: -0.653D+00 0.165D+01
 Coeff-En:   0.000D+00 0.100D+01
 Coeff:     -0.525D+00 0.153D+01
 RMSDP=1.43D-02 MaxDP=9.86D-02 DE=-2.16D-01 OVMax= 0.00D+00

 Cycle   3  Pass 1  IDiag  3:
 E= 0.458317629110354E-01 Delta-E=       -0.055332710510 Rises=F Damp=F
 DIIS: error= 4.98D-03 at cycle   3 NSaved=   3.
 NSaved= 3 IEnMin= 3 EnMin= 0.458317629110354E-01 IErMin= 3 ErrMin= 4.98D-03
 ErrMax= 4.98D-03  0.00D+00 EMaxC= 1.00D-01 BMatC= 5.75D-04 BMatP= 1.13D-02
 IDIUse=3 WtCom= 9.50D-01 WtEn= 4.98D-02
 Coeff-Com: -0.160D-01-0.186D+00 0.120D+01
 Coeff-En:   0.000D+00 0.000D+00 0.100D+01
 Coeff:     -0.152D-01-0.176D+00 0.119D+01
 Gap=     0.255 Goal=   None    Shift=    0.000
 RMSDP=3.63D-03 MaxDP=2.68D-02 DE=-5.53D-02 OVMax= 3.14D-02

 Cycle   4  Pass 1  IDiag  3:
 E= 0.428776913125901E-01 Delta-E=       -0.002954071598 Rises=F Damp=F
 DIIS: error= 1.12D-03 at cycle   4 NSaved=   4.
 NSaved= 4 IEnMin= 4 EnMin= 0.428776913125901E-01 IErMin= 4 ErrMin= 1.12D-03
 ErrMax= 1.12D-03  0.00D+00 EMaxC= 1.00D-01 BMatC= 2.72D-05 BMatP= 5.75D-04
 IDIUse=3 WtCom= 9.89D-01 WtEn= 1.12D-02
 Coeff-Com:  0.296D-01-0.410D-01-0.230D+00 0.124D+01
 Coeff-En:   0.000D+00 0.000D+00 0.000D+00 0.100D+01
 Coeff:      0.293D-01-0.405D-01-0.227D+00 0.124D+01
 Gap=     0.252 Goal=   None    Shift=    0.000
 RMSDP=8.55D-04 MaxDP=6.56D-03 DE=-2.95D-03 OVMax= 9.09D-03

 Cycle   5  Pass 1  IDiag  3:
 E= 0.427196424849896E-01 Delta-E=       -0.000158048828 Rises=F Damp=F
 DIIS: error= 3.54D-04 at cycle   5 NSaved=   5.
 NSaved= 5 IEnMin= 5 EnMin= 0.427196424849896E-01 IErMin= 5 ErrMin= 3.54D-04
 ErrMax= 3.54D-04  0.00D+00 EMaxC= 1.00D-01 BMatC= 2.69D-06 BMatP= 2.72D-05
 IDIUse=3 WtCom= 9.96D-01 WtEn= 3.54D-03
 Coeff-Com: -0.929D-02 0.133D-01 0.670D-01-0.559D+00 0.149D+01
 Coeff-En:   0.000D+00 0.000D+00 0.000D+00 0.000D+00 0.100D+01
 Coeff:     -0.925D-02 0.132D-01 0.668D-01-0.557D+00 0.149D+01
 Gap=     0.250 Goal=   None    Shift=    0.000
 RMSDP=2.80D-04 MaxDP=2.16D-03 DE=-1.58D-04 OVMax= 2.23D-03

 Cycle   6  Pass 1  IDiag  3:
 E= 0.427041089496285E-01 Delta-E=       -0.000015533535 Rises=F Damp=F
 DIIS: error= 6.89D-05 at cycle   6 NSaved=   6.
 NSaved= 6 IEnMin= 6 EnMin= 0.427041089496285E-01 IErMin= 6 ErrMin= 6.89D-05
 ErrMax= 6.89D-05  0.00D+00 EMaxC= 1.00D-01 BMatC= 1.21D-07 BMatP= 2.69D-06
 IDIUse=1 WtCom= 1.00D+00 WtEn= 0.00D+00
 Coeff-Com: -0.907D-03 0.203D-02 0.698D-02-0.271D-01-0.176D+00 0.120D+01
 Coeff:     -0.907D-03 0.203D-02 0.698D-02-0.271D-01-0.176D+00 0.120D+01
 Gap=     0.250 Goal=   None    Shift=    0.000
 RMSDP=5.52D-05 MaxDP=4.31D-04 DE=-1.55D-05 OVMax= 4.04D-04

 Cycle   7  Pass 1  IDiag  3:
 E= 0.427034776104378E-01 Delta-E=       -0.000000631339 Rises=F Damp=F
 DIIS: error= 1.20D-05 at cycle   7 NSaved=   7.
 NSaved= 7 IEnMin= 7 EnMin= 0.427034776104378E-01 IErMin= 7 ErrMin= 1.20D-05
 ErrMax= 1.20D-05  0.00D+00 EMaxC= 1.00D-01 BMatC= 4.15D-09 BMatP= 1.21D-07
 IDIUse=1 WtCom= 1.00D+00 WtEn= 0.00D+00
 Coeff-Com:  0.450D-03-0.518D-03-0.511D-02 0.199D-01 0.374D-01-0.447D+00
 Coeff-Com:  0.140D+01
 Coeff:      0.450D-03-0.518D-03-0.511D-02 0.199D-01 0.374D-01-0.447D+00
 Coeff:      0.140D+01
 Gap=     0.250 Goal=   None    Shift=    0.000
 RMSDP=9.75D-06 MaxDP=5.36D-05 DE=-6.31D-07 OVMax= 7.59D-05

 Cycle   8  Pass 1  IDiag  3:
 E= 0.427034574369216E-01 Delta-E=       -0.000000020174 Rises=F Damp=F
 DIIS: error= 1.72D-06 at cycle   8 NSaved=   8.
 NSaved= 8 IEnMin= 8 EnMin= 0.427034574369216E-01 IErMin= 8 ErrMin= 1.72D-06
 ErrMax= 1.72D-06  0.00D+00 EMaxC= 1.00D-01 BMatC= 7.95D-11 BMatP= 4.15D-09
 IDIUse=1 WtCom= 1.00D+00 WtEn= 0.00D+00
 Coeff-Com: -0.190D-05-0.812D-04 0.730D-03-0.157D-02-0.918D-02 0.816D-01
 Coeff-Com: -0.318D+00 0.125D+01
 Coeff:     -0.190D-05-0.812D-04 0.730D-03-0.157D-02-0.918D-02 0.816D-01
 Coeff:     -0.318D+00 0.125D+01
 Gap=     0.250 Goal=   None    Shift=    0.000
 RMSDP=1.55D-06 MaxDP=1.12D-05 DE=-2.02D-08 OVMax= 1.68D-05

 Cycle   9  Pass 1  IDiag  3:
 E= 0.427034570054516E-01 Delta-E=       -0.000000000431 Rises=F Damp=F
 DIIS: error= 2.95D-07 at cycle   9 NSaved=   9.
 NSaved= 9 IEnMin= 9 EnMin= 0.427034570054516E-01 IErMin= 9 ErrMin= 2.95D-07
 ErrMax= 2.95D-07  0.00D+00 EMaxC= 1.00D-01 BMatC= 3.86D-12 BMatP= 7.95D-11
 IDIUse=1 WtCom= 1.00D+00 WtEn= 0.00D+00
 Coeff-Com: -0.557D-05 0.438D-04-0.232D-03 0.203D-03 0.366D-02-0.267D-01
 Coeff-Com:  0.107D+00-0.511D+00 0.143D+01
 Coeff:     -0.557D-05 0.438D-04-0.232D-03 0.203D-03 0.366D-02-0.267D-01
 Coeff:      0.107D+00-0.511D+00 0.143D+01
 Gap=     0.250 Goal=   None    Shift=    0.000
 RMSDP=3.96D-07 MaxDP=3.19D-06 DE=-4.31D-10 OVMax= 3.04D-06

 Cycle  10  Pass 1  IDiag  3:
 E= 0.427034569778115E-01 Delta-E=       -0.000000000028 Rises=F Damp=F
 DIIS: error= 1.25D-07 at cycle  10 NSaved=  10.
 NSaved=10 IEnMin=10 EnMin= 0.427034569778115E-01 IErMin=10 ErrMin= 1.25D-07
 ErrMax= 1.25D-07  0.00D+00 EMaxC= 1.00D-01 BMatC= 2.58D-13 BMatP= 3.86D-12
 IDIUse=1 WtCom= 1.00D+00 WtEn= 0.00D+00
 Coeff-Com:  0.196D-05-0.121D-04 0.579D-04-0.537D-04-0.848D-03 0.620D-02
 Coeff-Com: -0.259D-01 0.136D+00-0.555D+00 0.144D+01
 Coeff:      0.196D-05-0.121D-04 0.579D-04-0.537D-04-0.848D-03 0.620D-02
 Coeff:     -0.259D-01 0.136D+00-0.555D+00 0.144D+01
 Gap=     0.250 Goal=   None    Shift=    0.000
 RMSDP=1.53D-07 MaxDP=1.56D-06 DE=-2.76D-11 OVMax= 1.51D-06

 Cycle  11  Pass 1  IDiag  3:
 E= 0.427034569748130E-01 Delta-E=       -0.000000000003 Rises=F Damp=F
 DIIS: error= 4.95D-08 at cycle  11 NSaved=  11.
 NSaved=11 IEnMin=11 EnMin= 0.427034569748130E-01 IErMin=11 ErrMin= 4.95D-08
 ErrMax= 4.95D-08  0.00D+00 EMaxC= 1.00D-01 BMatC= 2.57D-14 BMatP= 2.58D-13
 IDIUse=1 WtCom= 1.00D+00 WtEn= 0.00D+00
 Coeff-Com: -0.558D-06 0.318D-05-0.149D-04 0.114D-04 0.248D-03-0.172D-02
 Coeff-Com:  0.712D-02-0.410D-01 0.199D+00-0.760D+00 0.160D+01
 Coeff:     -0.558D-06 0.318D-05-0.149D-04 0.114D-04 0.248D-03-0.172D-02
 Coeff:      0.712D-02-0.410D-01 0.199D+00-0.760D+00 0.160D+01
 Gap=     0.250 Goal=   None    Shift=    0.000
 RMSDP=6.55D-08 MaxDP=7.26D-07 DE=-3.00D-12 OVMax= 7.11D-07

 Cycle  12  Pass 1  IDiag  3:
 E= 0.427034569742659E-01 Delta-E=       -0.000000000001 Rises=F Damp=F
 DIIS: error= 1.43D-08 at cycle  12 NSaved=  12.
 NSaved=12 IEnMin=12 EnMin= 0.427034569742659E-01 IErMin=12 ErrMin= 1.43D-08
 ErrMax= 1.43D-08  0.00D+00 EMaxC= 1.00D-01 BMatC= 2.20D-15 BMatP= 2.57D-14
 IDIUse=1 WtCom= 1.00D+00 WtEn= 0.00D+00
 Coeff-Com: -0.789D-07 0.257D-06-0.433D-06-0.498D-06-0.287D-05 0.190D-04
 Coeff-Com: -0.199D-04 0.120D-02-0.164D-01 0.141D+00-0.640D+00 0.151D+01
 Coeff:     -0.789D-07 0.257D-06-0.433D-06-0.498D-06-0.287D-05 0.190D-04
 Coeff:     -0.199D-04 0.120D-02-0.164D-01 0.141D+00-0.640D+00 0.151D+01
 Gap=     0.250 Goal=   None    Shift=    0.000
 RMSDP=2.15D-08 MaxDP=2.46D-07 DE=-5.47D-13 OVMax= 2.42D-07

 Cycle  13  Pass 1  IDiag  3:
 E= 0.427034569742446E-01 Delta-E=        0.000000000000 Rises=F Damp=F
 DIIS: error= 2.25D-09 at cycle  13 NSaved=  13.
 NSaved=13 IEnMin=13 EnMin= 0.427034569742446E-01 IErMin=13 ErrMin= 2.25D-09
 ErrMax= 2.25D-09  0.00D+00 EMaxC= 1.00D-01 BMatC= 1.12D-16 BMatP= 2.20D-15
 IDIUse=1 WtCom= 1.00D+00 WtEn= 0.00D+00
 Coeff-Com:  0.334D-07-0.186D-06 0.748D-06 0.516D-07-0.103D-04 0.620D-04
 Coeff-Com: -0.249D-03 0.995D-03-0.125D-03-0.312D-01 0.205D+00-0.632D+00
 Coeff-Com:  0.146D+01
 Coeff:      0.334D-07-0.186D-06 0.748D-06 0.516D-07-0.103D-04 0.620D-04
 Coeff:     -0.249D-03 0.995D-03-0.125D-03-0.312D-01 0.205D+00-0.632D+00
 Coeff:      0.146D+01
 Gap=     0.250 Goal=   None    Shift=    0.000
 RMSDP=3.40D-09 MaxDP=3.46D-08 DE=-2.13D-14 OVMax= 3.42D-08

 Cycle  14  Pass 2  IDiag  1:
 SCF Done:  E(RPM7) =  0.427034569742E-01 A.U. after   14 cycles
            NFock= 13  Conv=0.34D-08     -V/T= 1.0012
 KE=-3.644528199123D+01 PE=-7.206411397335D+01 EE= 4.715563393135D+01
 Leave Link  502 at Thu Dec 11 19:54:50 2025, MaxMem=   268435456 cpu:               1.0 elap:               0.8
 (Enter D:\G16W\l801.exe)
 Range of M.O.s used for correlation:     1    23
 NBasis=    23 NAE=    11 NBE=    11 NFC=     0 NFV=     0
 NROrb=     23 NOA=    11 NOB=    11 NVA=    12 NVB=    12
 Leave Link  801 at Thu Dec 11 19:54:50 2025, MaxMem=   268435456 cpu:               0.0 elap:               0.0
 (Enter D:\G16W\l1101.exe)
 Using compressed storage, NAtomX=     9.
 Will process     10 centers per pass.
 R6Disp: Adding PM7 dispersion energy 1st derivatives to the gradient.
 Leave Link 1101 at Thu Dec 11 19:54:50 2025, MaxMem=   268435456 cpu:               0.0 elap:               0.1
 (Enter D:\G16W\l1102.exe)
 Symmetrizing basis deriv contribution to polar:
 IMax=3 JMax=2 DiffMx= 0.00D+00
 Leave Link 1102 at Thu Dec 11 19:54:50 2025, MaxMem=   268435456 cpu:               0.0 elap:               0.0
 (Enter D:\G16W\l1110.exe)
 Forming Gx(P) for the SCF density, NAtomX=     9.
 Integral derivatives from FoFJK, PRISM(SPDF).
 Do as many integral derivatives as possible in FoFJK.
 G2DrvN: MDV=     268375778.
 G2DrvN: will do    10 centers at a time, making    1 passes.
 Calling FoFCou, ICntrl=  3107 FMM=F I1Cent=   0 AccDes= 0.00D+00.
 FoFJK:  IHMeth=43 ICntrl=    3107 DoSepK=F KAlg= 0 I1Cent=           0 FoldK=F
 IRaf=         0 NMat=       1 IRICut=       1 DoRegI=T DoRafI=F ISym2E= 0 IDoP0=3 IntGTp=3.
 FoFCou: FMM=F IPFlag=           0 FMFlag=      100000 FMFlg1=           0
         NFxFlg=           0 DoJE=F BraDBF=F KetDBF=F FulRan=T
         wScrn=  0.000000 ICntrl=      3107 IOpCl=  0 I1Cent=           0 NGrid=           0
         NMat0=    1 NMatS0=      1 NMatT0=    0 NMatD0=    1 NMtDS0=    0 NMtDT0=    0
 Symmetry not used in FoFCou.
 End of G2Drv F.D. properties file   721 does not exist.
 End of G2Drv F.D. properties file   722 does not exist.
 End of G2Drv F.D. properties file   788 does not exist.
 Leave Link 1110 at Thu Dec 11 19:54:50 2025, MaxMem=   268435456 cpu:               0.0 elap:               0.1
 (Enter D:\G16W\l1002.exe)
 Minotr:  Closed shell wavefunction.
          IDoAtm=111111111
          Direct CPHF calculation.
          Differentiating once with respect to electric field.
                with respect to dipole field.
          Differentiating once with respect to nuclear coordinates.
          Electric field/nuclear overlap derivatives assumed to be zero.
          Requested convergence is 1.0D-08 RMS, and 1.0D-07 maximum.
          NewPWx=T KeepS1=F KeepF1=F KeepIn=T MapXYZ=F SortEE=F KeepMc=T.
 Keep J ints in memory in canonical form, NReq=1850398.
 FoFCou: FMM=F IPFlag=           0 FMFlag=           0 FMFlg1=           0
         NFxFlg=           0 DoJE=F BraDBF=F KetDBF=F FulRan=T
         wScrn=  0.000000 ICntrl=       600 IOpCl=  2 I1Cent=           0 NGrid=           0
         NMat0=    1 NMatS0=     71 NMatT0=    0 NMatD0=    1 NMtDS0=    0 NMtDT0=    0
 Symmetry not used in FoFCou.
 Two-electron integral symmetry not used.
          MDV=     268435456 using IRadAn=       1.
          Solving linear equations separately, MaxMat=       0.
          There are    30 degrees of freedom in the 1st order CPHF.  IDoFFX=5 NUNeed=    30.
 LinEq1:  Iter=  0 NonCon=    30 RMS=7.15D-01 Max=7.99D+00 NDo=    30
 AX will form    30 AO Fock derivatives at one time.
 LinEq1:  Iter=  1 NonCon=    30 RMS=5.37D-02 Max=2.86D-01 NDo=    30
 LinEq1:  Iter=  2 NonCon=    30 RMS=1.11D-02 Max=6.37D-02 NDo=    30
 LinEq1:  Iter=  3 NonCon=    30 RMS=1.55D-03 Max=7.20D-03 NDo=    30
 LinEq1:  Iter=  4 NonCon=    30 RMS=1.81D-04 Max=1.18D-03 NDo=    30
 LinEq1:  Iter=  5 NonCon=    30 RMS=2.17D-05 Max=9.94D-05 NDo=    30
 LinEq1:  Iter=  6 NonCon=    29 RMS=3.83D-06 Max=1.86D-05 NDo=    30
 LinEq1:  Iter=  7 NonCon=    15 RMS=4.44D-07 Max=2.73D-06 NDo=    30
 LinEq1:  Iter=  8 NonCon=     3 RMS=5.54D-08 Max=3.67D-07 NDo=    30
 LinEq1:  Iter=  9 NonCon=     0 RMS=4.83D-09 Max=2.41D-08 NDo=    30
 Linear equations converged to 1.000D-08 1.000D-07 after     9 iterations.
 FullF1:  Do perturbations      1 to       3.
 Isotropic polarizability for W=    0.000000       52.86 Bohr**3.
 End of Minotr F.D. properties file   721 does not exist.
 End of Minotr F.D. properties file   722 does not exist.
 End of Minotr F.D. properties file   788 does not exist.
 Leave Link 1002 at Thu Dec 11 19:54:50 2025, MaxMem=   268435456 cpu:               0.0 elap:               0.1
 (Enter D:\G16W\l601.exe)
 Copying SCF densities to generalized density rwf, IOpCl= 0 IROHF=0.

 **********************************************************************

            Population analysis using the SCF density.

 **********************************************************************

 Orbital symmetries:
       Occupied  (A) (A) (A) (A) (A) (A) (A) (A) (A) (A) (A)
       Virtual   (A) (A) (A) (A) (A) (A) (A) (A) (A) (A) (A) (A)
 The electronic state is 1-A.
 Alpha  occ. eigenvalues --   -1.44594  -0.94877  -0.72801  -0.72798  -0.69993
 Alpha  occ. eigenvalues --   -0.56740  -0.56667  -0.56666  -0.28420  -0.28175
 Alpha  occ. eigenvalues --   -0.28175
 Alpha virt. eigenvalues --   -0.03159   0.06471   0.12973   0.12974   0.16574
 Alpha virt. eigenvalues --    0.16575   0.16991   4.85968   4.85968   4.86043
 Alpha virt. eigenvalues --    4.86924   4.86924
          Condensed to atoms (all electrons):
               1          2          3          4          5          6
     1  N    5.469656   0.000000   0.000000   0.000000   0.000000   0.000000
     2  H    0.000000   0.726438   0.000000   0.000000   0.000000   0.000000
     3  H    0.000000   0.000000   0.726428   0.000000   0.000000   0.000000
     4  H    0.000000   0.000000   0.000000   0.726433   0.000000   0.000000
     5  C    0.000000   0.000000   0.000000   0.000000   4.061637   0.000000
     6  I    0.000000   0.000000   0.000000   0.000000   0.000000   7.774772
     7  H    0.000000   0.000000   0.000000   0.000000   0.000000   0.000000
     8  H    0.000000   0.000000   0.000000   0.000000   0.000000   0.000000
     9  H    0.000000   0.000000   0.000000   0.000000   0.000000   0.000000
               7          8          9
     1  N    0.000000   0.000000   0.000000
     2  H    0.000000   0.000000   0.000000
     3  H    0.000000   0.000000   0.000000
     4  H    0.000000   0.000000   0.000000
     5  C    0.000000   0.000000   0.000000
     6  I    0.000000   0.000000   0.000000
     7  H    0.838209   0.000000   0.000000
     8  H    0.000000   0.838180   0.000000
     9  H    0.000000   0.000000   0.838248
 Mulliken charges:
               1
     1  N   -0.469656
     2  H    0.273562
     3  H    0.273572
     4  H    0.273567
     5  C   -0.061637
     6  I   -0.774772
     7  H    0.161791
     8  H    0.161820
     9  H    0.161752
 Sum of Mulliken charges =   0.00000
 Mulliken charges with hydrogens summed into heavy atoms:
               1
     1  N    0.351045
     5  C    0.423727
     6  I   -0.774772
 APT charges:
               1
     1  N   -1.109939
     2  H    0.233500
     3  H    0.233378
     4  H    0.233298
     5  C    1.372202
     6  I   -1.195142
     7  H    0.077526
     8  H    0.077552
     9  H    0.077620
 Sum of APT charges =   0.00000
 APT charges with hydrogens summed into heavy atoms:
               1
     1  N   -0.409762
     5  C    1.604900
     6  I   -1.195142
 Charge=              0.0000 electrons
 Dipole moment (field-independent basis, Debye):
    X=             -0.0007    Y=             -0.1300    Z=             15.1023  Tot=             15.1028
 N-N= 6.139646549020D+01 E-N=-7.206411394096D+01  KE=-3.644528199123D+01
  Exact polarizability:  15.363   0.000  15.890  -0.011  -0.975 127.316
 Approx polarizability:  11.321   0.000  11.327  -0.007  -0.554  75.046
 Leave Link  601 at Thu Dec 11 19:54:51 2025, MaxMem=   268435456 cpu:               0.0 elap:               0.1
 (Enter D:\G16W\l701.exe)
 ... and contract with generalized density number  0.
 Compute integral second derivatives.
 R6Disp: Adding PM7 dispersion energy 2nd derivatives to the Hessian.
 Leave Link  701 at Thu Dec 11 19:54:51 2025, MaxMem=   268435456 cpu:               0.0 elap:               0.1
 (Enter D:\G16W\l702.exe)
 L702 exits ... SP integral derivatives will be done elsewhere.
 Leave Link  702 at Thu Dec 11 19:54:51 2025, MaxMem=   268435456 cpu:               0.0 elap:               0.0
 (Enter D:\G16W\l703.exe)
 Integral derivatives from FoFJK, PRISM(SPDF).
 Compute integral second derivatives, UseDBF=F ICtDFT=           0.
 Calling FoFJK, ICntrl=    100127 FMM=F ISym2X=0 I1Cent= 0 IOpClX= 0 NMat=1 NMatS=1 NMatT=0.
 FoFJK:  IHMeth=43 ICntrl=  100127 DoSepK=F KAlg= 0 I1Cent=           0 FoldK=F
 IRaf=         0 NMat=       1 IRICut=       1 DoRegI=T DoRafI=F ISym2E= 0 IDoP0=3 IntGTp=3.
 FoFCou: FMM=F IPFlag=           0 FMFlag=      100000 FMFlg1=         800
         NFxFlg=           0 DoJE=F BraDBF=F KetDBF=F FulRan=T
         wScrn=  0.000000 ICntrl=    100127 IOpCl=  0 I1Cent=           0 NGrid=           0
         NMat0=    1 NMatS0=      1 NMatT0=    0 NMatD0=    1 NMtDS0=    0 NMtDT0=    0
 Symmetry not used in FoFCou.
 Leave Link  703 at Thu Dec 11 19:54:51 2025, MaxMem=   268435456 cpu:               0.0 elap:               0.1
 (Enter D:\G16W\l716.exe)
 Dipole        =-2.74870784D-04-5.11301782D-02 5.94169255D+00
 Polarizability= 1.53634271D+01 2.41122329D-04 1.58903681D+01
                -1.13781919D-02-9.75252463D-01 1.27316121D+02
 HyperPolar    = 4.86329470D-01 3.32976116D+00-4.67973412D-01
                -4.32597730D+00 3.23431685D+01-6.05493323D-03
                 3.28419149D+01-7.86909183D-01-5.59699787D+01
                 6.60013471D+03
 ***** Axes restored to original set *****
 -------------------------------------------------------------------
 Center     Atomic                   Forces (Hartrees/Bohr)
 Number     Number              X              Y              Z
 -------------------------------------------------------------------
      1        7          -0.010505777    0.000029820    0.000029503
      2        1           0.000018966    0.000004764   -0.000002059
      3        1          -0.000018630    0.000003587   -0.000000248
      4        1          -0.000025744   -0.000005733   -0.000019971
      5        6           0.010548154   -0.000000636    0.000003418
      6       53           0.000016360   -0.000007865   -0.000004315
      7        1          -0.000005967    0.000001454   -0.000009563
      8        1           0.000014007   -0.000000025    0.000003194
      9        1          -0.000041368   -0.000025367    0.000000041
 -------------------------------------------------------------------
 Cartesian Forces:  Max     0.010548154 RMS     0.002865126
 Force constants in Cartesian coordinates: 
                1             2             3             4             5 
      1  0.232833D+00
      2 -0.997322D-04  0.451359D+00
      3 -0.672420D-04  0.223263D-04  0.451355D+00
      4 -0.697999D-01 -0.724282D-01  0.249918D-02  0.677261D-01
      5 -0.458819D-01 -0.210530D+00  0.508837D-02  0.673309D-01  0.248860D+00
      6  0.158289D-02  0.508128D-02 -0.627558D-01 -0.232299D-02 -0.659656D-02
      7 -0.699049D-01  0.340892D-01 -0.640555D-01  0.702931D-02 -0.486681D-02
      8  0.216053D-01 -0.952191D-01  0.613580D-01  0.113445D-01 -0.182972D-01
      9 -0.406043D-01  0.613759D-01 -0.177966D+00  0.104728D-03  0.648746D-02
     10 -0.699806D-01  0.384762D-01  0.616305D-01  0.703603D-02 -0.555580D-02
     11  0.244036D-01 -0.104061D+00 -0.664670D-01  0.113307D-01 -0.208744D-01
     12  0.390936D-01 -0.664777D-01 -0.169079D+00 -0.883933D-03 -0.500399D-02
     13  0.868318D-01 -0.255787D-04  0.466354D-05 -0.300592D-02 -0.129433D-01
     14  0.265681D-05 -0.399849D-01 -0.422369D-05 -0.168118D-01  0.689736D-04
     15  0.745929D-05 -0.398672D-05 -0.400024D-01  0.577812D-03  0.284688D-04
     16 -0.255829D-01  0.716982D-05  0.000000D+00 -0.126102D-02  0.181000D-02
     17  0.393756D-05  0.197515D-02  0.000000D+00  0.497815D-03 -0.292381D-03
     18  0.246314D-05  0.000000D+00  0.197648D-02 -0.168198D-04  0.388487D-05
     19 -0.281273D-01  0.941561D-02 -0.176872D-01 -0.185710D-02 -0.220787D-03
     20  0.452750D-02 -0.456869D-04  0.167415D-02 -0.825691D-03  0.540770D-03
     21 -0.851854D-02  0.167774D-02 -0.231031D-02 -0.486319D-03 -0.260594D-03
     22 -0.281315D-01  0.106010D-01  0.169929D-01 -0.185777D-02 -0.181745D-03
     23  0.509757D-02 -0.284779D-03 -0.180933D-02 -0.790488D-03  0.571106D-03
     24  0.817750D-02 -0.181136D-02 -0.206168D-02  0.540949D-03  0.240267D-03
     25 -0.281394D-01 -0.200356D-01  0.681912D-03 -0.400945D-02  0.509615D-03
     26 -0.965897D-02 -0.320935D-02  0.137262D-03  0.352270D-03 -0.473322D-04
     27  0.326095D-03  0.135407D-03  0.843386D-03 -0.125946D-04  0.127084D-04
                6             7             8             9            10 
      6  0.572993D-01
      7  0.102170D-01  0.677928D-01
      8  0.322776D-01 -0.317052D-01  0.993998D-01
      9  0.642463D-03  0.595684D-01 -0.795640D-01  0.206662D+00
     10 -0.985470D-02  0.704467D-02 -0.641989D-02 -0.933953D-02  0.678530D-01
     11 -0.307843D-01 -0.576682D-02  0.126781D-01  0.113934D-01 -0.357971D-01
     12  0.321226D-02  0.978420D-02 -0.143726D-01 -0.303541D-01 -0.573344D-01
     13  0.446666D-03 -0.297137D-02  0.608471D-02 -0.114273D-01 -0.295908D-02
     14  0.258783D-04  0.789259D-02  0.747706D-03  0.350803D-03  0.889513D-02
     15  0.934542D-03 -0.148396D-01  0.344745D-03  0.266917D-03  0.142526D-01
     16 -0.629499D-04 -0.126569D-02 -0.852825D-03  0.159971D-02 -0.126860D-02
     17  0.417888D-05 -0.233212D-03 -0.199950D-03  0.489167D-04 -0.263053D-03
     18 -0.174141D-03  0.439673D-03  0.494343D-04 -0.266316D-03 -0.421995D-03
     19 -0.560205D-03 -0.400852D-02 -0.242585D-03  0.451885D-03 -0.185820D-02
     20 -0.204257D-03 -0.168086D-03  0.238990D-03  0.153069D-03  0.861451D-03
     21  0.275806D-03  0.312152D-03  0.153154D-03  0.332180D-04  0.413349D-03
     22  0.572944D-03 -0.185812D-02  0.593460D-03  0.894256D-04 -0.400829D-02
     23  0.183542D-03  0.831946D-03  0.141651D-03  0.299042D-04 -0.188975D-03
     24  0.245224D-03 -0.471979D-03 -0.271315D-04  0.675799D-03 -0.301867D-03
     25 -0.186478D-04 -0.185789D-02 -0.407615D-03 -0.442794D-03 -0.185863D-02
     26  0.126948D-04 -0.735827D-04  0.510059D-03 -0.275409D-03 -0.795069D-05
     27  0.320317D-03 -0.954321D-03 -0.219168D-03  0.305854D-03  0.956012D-03
               11            12            13            14            15 
     11  0.110863D+00
     12  0.861805D-01  0.195149D+00
     13  0.685548D-02  0.109775D-01 -0.853351D-01
     14  0.697147D-03 -0.373176D-03 -0.642214D-04  0.428319D+00
     15 -0.369838D-03  0.328678D-03 -0.441854D-04 -0.604777D-05  0.428281D+00
     16 -0.961101D-03 -0.153807D-02  0.453255D-01  0.232063D-05  0.285246D-05
     17 -0.206928D-03 -0.531432D-04 -0.211606D-04 -0.346866D-02  0.000000D+00
     18 -0.533686D-04 -0.258992D-03 -0.118494D-04  0.000000D+00 -0.346638D-02
     19  0.585300D-03 -0.131612D-03 -0.126341D-01  0.956319D-02 -0.179537D-01
     20  0.143645D-03  0.696177D-05  0.110193D-01 -0.796467D-01  0.730585D-01
     21  0.638718D-04  0.673115D-03 -0.206698D-01  0.730591D-01 -0.177923D+00
     22 -0.273689D-03 -0.436303D-03 -0.126320D-01  0.107939D-01  0.173025D-01
     23  0.216967D-03 -0.165951D-03  0.124343D-01 -0.900656D-01 -0.790654D-01
     24 -0.165873D-03  0.547432D-04  0.199222D-01 -0.790660D-01 -0.167479D+00
     25 -0.376393D-03  0.468812D-03 -0.126192D-01 -0.202737D-01  0.694224D-03
     26  0.543316D-03  0.259098D-03 -0.233396D-01 -0.216667D+00  0.601296D-02
     27  0.202594D-03  0.273875D-03  0.802054D-03  0.601302D-02 -0.409401D-01
               16            17            18            19            20 
     16  0.364146D-01
     17  0.114738D-04  0.360434D-02
     18  0.556226D-05  0.109188D-05  0.360746D-02
     19 -0.174530D-01 -0.246581D-02  0.463661D-02  0.560395D-01
     20 -0.194256D-02  0.307234D-03  0.115835D-02 -0.145095D-01  0.838707D-01
     21  0.364673D-02  0.115749D-02 -0.125078D-02  0.272421D-01 -0.884201D-01
     22 -0.174705D-01 -0.277842D-02 -0.445605D-02  0.494935D-02 -0.123190D-02
     23 -0.219267D-02  0.142698D-03 -0.125523D-02 -0.110007D-02  0.818162D-02
     24 -0.351390D-02 -0.125473D-02 -0.108607D-02  0.198816D-02 -0.857937D-02
     25 -0.174382D-01  0.524841D-02 -0.177592D-03  0.494937D-02  0.226949D-02
     26  0.411820D-02 -0.186161D-02  0.947909D-04 -0.102528D-02 -0.135906D-01
     27 -0.140667D-03  0.951525D-04  0.918684D-03  0.201397D-02  0.211526D-01
               21            22            23            24            25 
     21  0.202815D+00
     22 -0.189878D-02  0.560599D-01
     23  0.650859D-02 -0.163648D-01  0.964790D-01
     24 -0.220428D-01 -0.262289D-01  0.956901D-01  0.190172D+00
     25 -0.409018D-04  0.494897D-02  0.227313D-02 -0.112169D-03  0.560245D-01
     26  0.606077D-02 -0.115778D-02 -0.153827D-01 -0.502595D-02  0.307927D-01
     27 -0.270407D-03 -0.193773D-02 -0.201162D-01  0.152211D-02 -0.105282D-02
               26            27 
     26  0.249705D+00
     27 -0.727619D-02  0.370263D-01
 FormGI is forming the generalized inverse of G from B-inverse, IUseBI=4.
 Force constants in internal coordinates: 
                1             2             3             4             5 
      1  0.271330D+00
      2  0.107408D-01  0.271307D+00
      3  0.107416D-01  0.107441D-01  0.271340D+00
      4  0.143520D-01  0.143350D-01  0.143262D-01  0.590549D-01
      5  0.191934D-03  0.193702D-03  0.193961D-03  0.630522D-01  0.218225D-01
      6  0.637604D-03  0.174256D-03  0.637900D-03  0.164619D-01 -0.313201D-02
      7  0.626567D-03  0.634760D-03  0.172416D-03  0.163673D-01 -0.279468D-02
      8  0.174086D-03  0.620946D-03  0.622828D-03  0.162883D-01 -0.248335D-02
      9 -0.440039D-03 -0.663199D-03 -0.437075D-03 -0.117258D-01 -0.860000D-02
     10 -0.438603D-03 -0.437958D-03 -0.660615D-03 -0.117112D-01 -0.859047D-02
     11 -0.660083D-03 -0.435309D-03 -0.439261D-03 -0.116941D-01 -0.862350D-02
     12  0.720661D-02  0.721425D-02  0.110135D-02 -0.736235D-02 -0.418277D-02
     13  0.720687D-02  0.110227D-02  0.721888D-02 -0.735650D-02 -0.418521D-02
     14  0.101321D-02 -0.835578D-02 -0.835942D-02  0.749581D-02  0.423062D-02
     15  0.110383D-02  0.721543D-02  0.721968D-02 -0.734323D-02 -0.418871D-02
     16 -0.835542D-02  0.100051D-02 -0.836415D-02  0.743206D-02  0.423645D-02
     17 -0.835862D-02 -0.836363D-02  0.993890D-03  0.739951D-02  0.424061D-02
     18  0.464888D-03  0.277977D-03  0.466751D-03  0.370263D-01  0.140480D-01
     19  0.462752D-03  0.465618D-03  0.280684D-03  0.370063D-01  0.140848D-01
     20  0.280336D-03  0.464813D-03  0.462057D-03  0.370435D-01  0.141281D-01
     21 -0.220343D-03 -0.181209D-03 -0.199665D-03 -0.184083D-01 -0.700825D-02
     22 -0.190438D-03 -0.181544D-03 -0.228952D-03 -0.184016D-01 -0.699196D-02
     23 -0.189596D-03 -0.237840D-03 -0.172513D-03 -0.183961D-01 -0.700391D-02
     24  0.224096D-03  0.169841D-03  0.165954D-03  0.320558D-02 -0.135559D-02
     25  0.168252D-03  0.167202D-03  0.221516D-03  0.319189D-02 -0.129738D-02
     26  0.166506D-03  0.218637D-03  0.169200D-03  0.317657D-02 -0.124358D-02
     27  0.798887D-04 -0.164511D-03  0.822606D-04 -0.170355D-04  0.256533D-05
     28 -0.139982D-03  0.108395D-05  0.139191D-03  0.238399D-04 -0.706970D-05
     29  0.473348D-05 -0.435762D-02  0.435010D-02 -0.108630D-05 -0.603773D-05
     30 -0.604138D-05 -0.436147D-02  0.436452D-02 -0.152283D-05  0.736348D-05
     31  0.000000D+00 -0.435451D-02  0.435195D-02 -0.382910D-05  0.127810D-05
     32  0.436594D-02  0.155532D-05 -0.436026D-02  0.892955D-05 -0.871595D-05
     33  0.435516D-02 -0.229448D-05 -0.434584D-02  0.849302D-05  0.468526D-05
     34  0.436037D-02  0.466457D-05 -0.435842D-02  0.618675D-05 -0.140012D-05
     35 -0.435441D-02  0.435675D-02 -0.612901D-05 -0.363518D-05 -0.572122D-05
     36 -0.436518D-02  0.435290D-02  0.828456D-05 -0.407171D-05  0.767999D-05
     37 -0.435998D-02  0.435986D-02 -0.428692D-05 -0.637797D-05  0.159461D-05
     38 -0.390420D-04 -0.639526D-04  0.456239D-04 -0.313284D-03  0.952840D-04
     39 -0.499095D-04  0.626035D-04  0.434854D-04  0.339400D-03 -0.428735D-04
     40  0.487386D-04 -0.484337D-04 -0.582473D-04 -0.341277D-03  0.883588D-04
                6             7             8             9            10 
      6  0.213645D+00
      7  0.672249D-02  0.211951D+00
      8  0.725681D-02  0.500078D-02  0.207553D+00
      9  0.783188D-02  0.800137D-03  0.208316D-02  0.194568D-01
     10  0.146155D-02  0.726371D-02  0.234803D-02  0.238167D-02  0.194593D-01
     11  0.146078D-02  0.302332D-02  0.700373D-02  0.242438D-02  0.245009D-02
     12 -0.372890D-03 -0.401888D-03 -0.344350D-03  0.992886D-03  0.692211D-03
     13 -0.371828D-03 -0.403383D-03 -0.342906D-03  0.691281D-03  0.999185D-03
     14  0.229104D-03  0.449624D-03  0.455062D-03 -0.938367D-03 -0.966148D-03
     15 -0.372753D-03 -0.313646D-03 -0.431511D-03  0.992924D-03  0.986839D-03
     16  0.675147D-03  0.117572D-03  0.341327D-03 -0.833675D-03 -0.916691D-03
     17  0.226661D-03  0.565130D-03  0.335873D-03 -0.937251D-03 -0.827700D-03
     18  0.196883D-01 -0.191050D-02 -0.251950D-03 -0.177498D-01 -0.249652D-02
     19 -0.121903D-02  0.188234D-01 -0.513023D-03 -0.261194D-02 -0.178433D-01
     20 -0.116136D-02  0.186310D-03  0.177479D-01 -0.246721D-02 -0.244722D-02
     21 -0.484417D-02  0.557819D-02 -0.925092D-02  0.504022D-02  0.488363D-02
     22 -0.481313D-02 -0.414127D-02  0.347154D-03  0.509949D-02  0.125254D-02
     23  0.105516D-02 -0.993615D-02  0.463696D-03  0.120648D-02  0.518920D-02
     24  0.355858D-01  0.375605D-01 -0.152518D-03  0.109937D-02  0.108375D-02
     25  0.356771D-01  0.865364D-03  0.357403D-01  0.132716D-02  0.592776D-03
     26  0.239151D-02  0.338781D-01  0.353698D-01  0.428480D-03  0.129369D-02
     27 -0.324126D-03 -0.101367D-02  0.107946D-02 -0.495438D-02  0.250281D-02
     28 -0.395980D-05  0.220907D-02 -0.205626D-02  0.806339D-05  0.435763D-02
     29 -0.102913D-03  0.508355D-02 -0.491924D-02 -0.178892D-03  0.732302D-04
     30  0.159394D-03 -0.512980D-02  0.493689D-02 -0.154723D-03  0.254575D-03
     31 -0.324696D-03  0.313715D-03 -0.189123D-04 -0.968204D-04  0.988173D-04
     32 -0.134317D-04  0.493530D-02 -0.485974D-02 -0.353394D-04 -0.215791D-03
     33  0.248875D-03 -0.527804D-02  0.499639D-02 -0.111710D-04 -0.344455D-04
     34 -0.235215D-03  0.165471D-03  0.405870D-04  0.467318D-04 -0.190203D-03
     35  0.756630D-04  0.496435D-02 -0.497751D-02  0.107606D-03 -0.642972D-04
     36  0.337969D-03 -0.524899D-02  0.487862D-02  0.131774D-03  0.117048D-03
     37 -0.146120D-03  0.194522D-03 -0.771827D-04  0.189677D-03 -0.387101D-04
     38  0.260462D-01 -0.279723D-01 -0.529320D-02  0.648133D-03 -0.126681D-03
     39 -0.259819D-01  0.253461D-02  0.301586D-01 -0.499631D-03  0.873195D-03
     40 -0.120505D-03  0.233436D-01 -0.304377D-01 -0.956517D-03  0.425488D-03
               11            12            13            14            15 
     11  0.194237D-01
     12  0.992182D-03  0.446993D-01
     13  0.987010D-03  0.859682D-02  0.447149D-01
     14 -0.807769D-03 -0.326993D-01 -0.327167D-01  0.757414D-01
     15  0.698208D-03  0.859361D-02  0.859265D-02  0.271668D-02  0.447377D-01
     16 -0.959729D-03 -0.326610D-01  0.272646D-02 -0.613788D-02 -0.327076D-01
     17 -0.941987D-03  0.273184D-02 -0.326567D-01 -0.615166D-02 -0.326850D-01
     18 -0.259397D-02 -0.327165D-02 -0.743413D-03  0.107636D-03 -0.327587D-02
     19 -0.234040D-02 -0.754559D-03 -0.327491D-02  0.155322D-03 -0.325953D-02
     20 -0.178540D-01 -0.326196D-02 -0.327301D-02  0.711131D-02 -0.760917D-03
     21  0.140419D-02  0.988726D-03  0.984576D-03  0.314294D-03  0.165119D-02
     22  0.498645D-02  0.164830D-02  0.985836D-03 -0.198147D-02  0.990032D-03
     23  0.493553D-02  0.985283D-03  0.165347D-02 -0.199799D-02  0.985104D-03
     24  0.735682D-03 -0.328688D-04 -0.341295D-04  0.303420D-03  0.101610D-03
     25  0.105921D-02  0.954399D-04 -0.228862D-04 -0.186149D-03 -0.379206D-04
     26  0.130984D-02 -0.287391D-04  0.915460D-04 -0.150605D-03 -0.285810D-04
     27  0.244215D-02 -0.792064D-03  0.158618D-02 -0.234974D-02 -0.793530D-03
     28 -0.437196D-02 -0.137969D-02 -0.632972D-05  0.410646D-02  0.138290D-02
     29  0.956287D-04 -0.757863D-02  0.756145D-02  0.198542D-03  0.148280D-04
     30 -0.893883D-04 -0.756562D-02  0.757665D-02 -0.197827D-03 -0.124415D-04
     31 -0.240436D-05 -0.755217D-02  0.754890D-02  0.251538D-05  0.174400D-05
     32  0.241103D-03  0.754922D-02 -0.509515D-05  0.224302D-02 -0.754285D-02
     33  0.560857D-04  0.756223D-02  0.101042D-04  0.184665D-02 -0.757012D-02
     34  0.143070D-03  0.757567D-02 -0.176465D-04  0.204699D-02 -0.755593D-02
     35 -0.536750D-04 -0.103541D-04 -0.755913D-02 -0.184862D-02  0.756816D-02
     36 -0.238692D-03  0.265914D-05 -0.754393D-02 -0.224499D-02  0.754089D-02
     37 -0.151708D-03  0.161012D-04 -0.757168D-02 -0.204465D-02  0.755508D-02
     38 -0.905562D-03 -0.120809D-03 -0.102231D-03  0.807179D-03  0.215631D-03
     39  0.300296D-04 -0.221882D-03  0.107374D-03  0.443667D-03  0.113882D-03
     40  0.161967D-03 -0.112430D-03  0.218595D-03 -0.417376D-03 -0.108086D-03
               16            17            18            19            20 
     16  0.757041D-01
     17 -0.616874D-02  0.756825D-01
     18  0.716279D-02  0.108335D-03  0.482065D-01
     19  0.964359D-04  0.712470D-02 -0.766528D-02  0.476661D-01
     20  0.121718D-03  0.150628D-03 -0.749468D-02 -0.698383D-02  0.475166D-01
     21 -0.200190D-02 -0.198041D-02 -0.790123D-02 -0.665279D-02 -0.187210D-02
     22 -0.199982D-02  0.313434D-03 -0.783560D-02 -0.135488D-02 -0.723096D-02
     23  0.333343D-03 -0.200274D-02 -0.687532D-03 -0.840228D-02 -0.731716D-02
     24 -0.171862D-03 -0.166572D-03  0.265734D-02  0.290138D-02 -0.238621D-03
     25 -0.130833D-03  0.281910D-03  0.295527D-02 -0.255767D-03  0.260069D-02
     26  0.268443D-03 -0.152467D-03 -0.179875D-03  0.263602D-02  0.280991D-02
     27  0.470213D-02 -0.235283D-02  0.304713D-01 -0.153547D-01 -0.151385D-01
     28 -0.139719D-04 -0.408913D-02 -0.450764D-04 -0.260351D-01  0.260923D-01
     29 -0.204245D-02  0.184425D-02 -0.419374D-03  0.326909D-02 -0.284624D-02
     30 -0.183710D-02  0.203426D-02 -0.269589D-02 -0.168266D-03  0.286660D-02
     31 -0.224165D-02  0.223859D-02  0.195371D-02 -0.194362D-02 -0.128275D-04
     32 -0.416398D-05 -0.223507D-02 -0.334968D-04  0.250193D-02 -0.246843D-02
     33  0.201190D-03 -0.204507D-02 -0.231001D-02 -0.935425D-03  0.324440D-02
     34 -0.203365D-03 -0.184074D-02  0.233959D-02 -0.271078D-02  0.364980D-03
     35  0.204021D-02 -0.193171D-03  0.355848D-03  0.287960D-02 -0.323120D-02
     36  0.224556D-02 -0.316733D-05 -0.192067D-02 -0.557753D-03  0.248163D-02
     37  0.184101D-02  0.201162D-03  0.272893D-02 -0.233311D-02 -0.397790D-03
     38 -0.344233D-03 -0.455403D-03  0.248973D-02 -0.395876D-02  0.941957D-03
     39  0.377503D-03 -0.820469D-03 -0.226971D-02 -0.131302D-02  0.412603D-02
     40  0.813398D-03 -0.394059D-03  0.152920D-02  0.188476D-02 -0.397452D-02
               21            22            23            24            25 
     21  0.129465D-01
     22 -0.219687D-02  0.125480D-01
     23 -0.258642D-02 -0.218894D-02  0.129301D-01
     24  0.219097D-02 -0.238191D-02 -0.245348D-02  0.126651D-01
     25 -0.325460D-02  0.121904D-02 -0.598461D-03  0.536371D-02  0.121545D-01
     26 -0.156691D-02 -0.150181D-02  0.451471D-03  0.568362D-02  0.594682D-02
     27 -0.155483D-02 -0.147077D-02  0.303656D-02 -0.392323D-03 -0.181751D-04
     28  0.280380D-02 -0.264853D-02 -0.161216D-03  0.676850D-03 -0.619516D-03
     29  0.485735D-02 -0.442940D-02 -0.430151D-03  0.186381D-02 -0.176867D-02
     30 -0.488014D-02  0.249894D-03  0.462940D-02 -0.186644D-02  0.928171D-03
     31  0.303693D-04  0.476227D-02 -0.479117D-02  0.437990D-05  0.944447D-03
     32  0.504704D-02 -0.481580D-02 -0.231723D-03  0.190295D-02 -0.184302D-02
     33 -0.469045D-02 -0.136509D-03  0.482783D-02 -0.182730D-02  0.853827D-03
     34  0.220058D-03  0.437587D-02 -0.459275D-02  0.435260D-04  0.870102D-03
     35  0.466007D-02 -0.462572D-02 -0.369297D-04  0.182291D-02 -0.179827D-02
     36 -0.507741D-02  0.535714D-04  0.502262D-02 -0.190733D-02  0.898573D-03
     37 -0.166903D-03  0.456595D-02 -0.439795D-02 -0.365138D-04  0.914848D-03
     38  0.393907D-02 -0.271903D-02 -0.958375D-03  0.465155D-03  0.295073D-02
     39  0.196202D-02 -0.449809D-02  0.226584D-02 -0.357173D-02 -0.205602D-03
     40 -0.653573D-03 -0.300552D-02  0.393765D-02  0.381797D-02 -0.573486D-02
               26            27            28            29            30 
     26  0.116149D-01
     27  0.326734D-03  0.280282D-01
     28 -0.618129D-05 -0.372931D-04  0.281760D-01
     29 -0.731363D-04 -0.493910D-03 -0.286989D-02  0.107369D-01
     30  0.925121D-03 -0.279570D-02  0.972627D-03  0.492633D-02  0.107645D-01
     31 -0.958642D-03  0.194322D-02  0.112127D-02  0.526626D-02  0.523186D-02
     32 -0.373755D-04 -0.455546D-04 -0.208892D-02  0.404073D-03 -0.550554D-02
     33  0.960882D-03 -0.234735D-02  0.175359D-02 -0.540646D-02  0.332661D-03
     34 -0.922881D-03  0.239158D-02  0.190223D-02 -0.506654D-02 -0.520001D-02
     35 -0.230443D-05  0.403382D-03 -0.287497D-02  0.302378D-03 -0.540237D-02
     36  0.995953D-03 -0.189841D-02  0.967538D-03 -0.550816D-02  0.435829D-03
     37 -0.887810D-03  0.284051D-02  0.111618D-02 -0.516824D-02 -0.509685D-02
     38 -0.574880D-02 -0.324686D-03  0.106459D-02  0.187857D-02 -0.185243D-02
     39  0.593406D-02  0.587118D-03  0.100780D-02  0.167091D-02  0.552690D-03
     40 -0.411623D-03  0.102370D-02  0.233489D-03  0.121758D-02  0.101367D-02
               31            32            33            34            35 
     31  0.107405D-01
     32 -0.527187D-02  0.109393D-01
     33 -0.530627D-02  0.502966D-02  0.107688D-01
     34  0.202403D-03  0.526332D-02  0.512985D-02  0.105323D-01
     35 -0.527206D-02  0.404198D-03 -0.530055D-02 -0.517024D-02  0.107344D-01
     36 -0.530646D-02 -0.550541D-02  0.438575D-03 -0.530371D-02  0.502965D-02
     37  0.202214D-03 -0.527175D-02 -0.520036D-02  0.987024D-04  0.515995D-02
     38 -0.700108D-04  0.200997D-02 -0.172104D-02  0.613834D-04  0.179109D-02
     39 -0.254267D-02  0.189436D-02  0.776147D-03 -0.231922D-02  0.176645D-02
     40 -0.255423D-02  0.131851D-02  0.111460D-02 -0.245330D-02  0.143951D-02
               36            37            38            39            40 
     36  0.109736D-01
     37  0.523135D-02  0.105304D-01
     38 -0.193992D-02 -0.157496D-03  0.998245D-02
     39  0.648233D-03 -0.244713D-02 -0.304911D-02  0.106028D-01
     40  0.123560D-02 -0.233230D-02 -0.372703D-02 -0.295441D-02  0.996475D-02
 Leave Link  716 at Thu Dec 11 19:54:51 2025, MaxMem=   268435456 cpu:               0.0 elap:               0.1
 (Enter D:\G16W\l103.exe)

 GradGradGradGradGradGradGradGradGradGradGradGradGradGradGradGradGradGrad
 Berny optimization.
 Red2BG is reusing G-inverse.
 Internal  Forces:  Max     0.010531178 RMS     0.001665182
 Search for a saddle point.
 Step number   1 out of a maximum of   50
 All quantities printed in internal units (Hartrees-Bohrs-Radians)
 Swapping is turned off.
 Second derivative matrix not updated -- analytic derivatives used.
 ITU=  0
     Eigenvalues ---   -0.03855   0.00049   0.01373   0.01388   0.01713
     Eigenvalues ---    0.03329   0.03396   0.04628   0.04631   0.08125
     Eigenvalues ---    0.08164   0.10563   0.10572   0.10923   0.16859
     Eigenvalues ---    0.22470   0.22650   0.25680   0.26198   0.26200
     Eigenvalues ---    0.29878
 Eigenvectors required to have negative eigenvalues:
                          R4        R5        A9        A7        A8
   1                    0.69736  -0.54458  -0.23312  -0.23303  -0.23301
                          A10       A12       A11       R11       R9
   1                    0.11587   0.11583   0.11579  -0.04662  -0.04656
 RFO step:  Lambda0=1.353557504D-03 Lambda=-7.23172071D-04.
 Linear search not attempted -- option 19 set.
 Iteration  1 RMS(Cart)=  0.02025540 RMS(Int)=  0.00087460
 Iteration  2 RMS(Cart)=  0.00050089 RMS(Int)=  0.00070926
 Iteration  3 RMS(Cart)=  0.00000087 RMS(Int)=  0.00070926
 ITry= 1 IFail=0 DXMaxC= 9.79D-02 DCOld= 1.00D+10 DXMaxT= 3.00D-01 DXLimC= 3.00D+00 Rises=F
 Variable       Old X    -DE/DX   Delta X   Delta X   Delta X     New X
                                 (Linear)    (Quad)   (Total)
    R1        1.91264   0.00001   0.00000  -0.00271  -0.00271   1.90993
    R2        1.91269  -0.00001   0.00000  -0.00276  -0.00276   1.90993
    R3        1.91259   0.00001   0.00000  -0.00266  -0.00266   1.90993
    R4        3.40465  -0.01053   0.00000   0.05988   0.05988   3.46453
    R5        5.27570   0.00000   0.00000  -0.17329  -0.17385   5.10185
    R6        2.05617   0.00001   0.00000  -0.00311  -0.00306   2.05311
    R7        2.05621   0.00000   0.00000  -0.00316  -0.00309   2.05311
    R8        2.05608   0.00003   0.00000  -0.00302  -0.00296   2.05312
    R9        5.37095   0.00000   0.00000  -0.07900  -0.07885   5.29210
   R10        5.37004   0.00001   0.00000  -0.07788  -0.07773   5.29230
   R11        5.37190  -0.00002   0.00000  -0.08014  -0.07999   5.29192
    A1        1.91618   0.00000   0.00000  -0.00316  -0.00317   1.91301
    A2        1.91622   0.00000   0.00000  -0.00319  -0.00320   1.91302
    A3        1.90458   0.00003   0.00000   0.00361   0.00361   1.90819
    A4        1.91609   0.00003   0.00000  -0.00307  -0.00308   1.91302
    A5        1.90515  -0.00002   0.00000   0.00311   0.00310   1.90826
    A6        1.90548  -0.00004   0.00000   0.00282   0.00281   1.90829
    A7        1.71952   0.00000   0.00000  -0.04117  -0.04171   1.67782
    A8        1.71959  -0.00001   0.00000  -0.04124  -0.04177   1.67782
    A9        1.71928   0.00003   0.00000  -0.04093  -0.04146   1.67782
   A10        2.05677   0.00000   0.00000   0.02047   0.01797   2.07474
   A11        2.05680  -0.00001   0.00000   0.02042   0.01794   2.07475
   A12        2.05681   0.00000   0.00000   0.02042   0.01794   2.07475
   A13        0.66819   0.00000   0.00000   0.01336   0.01301   0.68120
   A14        0.66805   0.00001   0.00000   0.01352   0.01317   0.68123
   A15        0.66812   0.00001   0.00000   0.01344   0.01309   0.68121
   A16        3.14164   0.00000   0.00000  -0.00005  -0.00005   3.14159
   A17        3.14196   0.00001   0.00000  -0.00048  -0.00049   3.14148
    D1        1.04698   0.00000   0.00000   0.00003   0.00003   1.04701
    D2       -1.04744   0.00000   0.00000   0.00006   0.00006  -1.04738
    D3        3.14135   0.00000   0.00000   0.00005   0.00005   3.14140
    D4        3.14115   0.00000   0.00000   0.00022   0.00022   3.14137
    D5        1.04673   0.00001   0.00000   0.00025   0.00025   1.04698
    D6       -1.04766   0.00001   0.00000   0.00025   0.00025  -1.04742
    D7       -1.04743   0.00000   0.00000   0.00005   0.00005  -1.04738
    D8        3.14134   0.00000   0.00000   0.00008   0.00008   3.14141
    D9        1.04694   0.00000   0.00000   0.00007   0.00007   1.04702
   D10       -0.55772   0.00000   0.00000  -0.00149  -0.00145  -0.55916
   D11        0.55773   0.00001   0.00000   0.00142   0.00143   0.55916
   D12       -0.55764  -0.00001   0.00000  -0.00155  -0.00154  -0.55918
         Item               Value     Threshold  Converged?
 Maximum Force            0.010531     0.000450     NO 
 RMS     Force            0.001665     0.000300     NO 
 Maximum Displacement     0.097890     0.001800     NO 
 RMS     Displacement     0.020313     0.001200     NO 
 Predicted change in Energy= 3.289042D-04
 Lowest energy point so far.  Saving SCF results.
 GradGradGradGradGradGradGradGradGradGradGradGradGradGradGradGradGradGrad

 Leave Link  103 at Thu Dec 11 19:54:51 2025, MaxMem=   268435456 cpu:               0.0 elap:               0.1
 (Enter D:\G16W\l202.exe)
                          Input orientation:                          
 ---------------------------------------------------------------------
 Center     Atomic      Atomic             Coordinates (Angstroms)
 Number     Number       Type             X           Y           Z
 ---------------------------------------------------------------------
      1          7           0        3.590864    0.000165    0.000089
      2          1           0        3.925320    0.953349   -0.032721
      3          1           0        3.925490   -0.447898    0.841970
      4          1           0        3.925646   -0.504780   -0.808893
      5          6           0        1.757512   -0.000052   -0.000040
      6         53           0       -0.942271   -0.000641   -0.000381
      7          1           0        1.641467    0.507710   -0.953510
      8          1           0        1.641327    0.571774    0.916428
      9          1           0        1.641585   -1.079681    0.036938
 ---------------------------------------------------------------------
                    Distance matrix (angstroms):
                    1          2          3          4          5
     1  N    0.000000
     2  H    1.010692   0.000000
     3  H    1.010692   1.651841   0.000000
     4  H    1.010692   1.651842   1.651842   0.000000
     5  C    1.833353   2.368425   2.368476   2.368501   0.000000
     6  I    4.533135   4.960301   4.960312   4.960288   2.699782
     7  H    2.228700   2.502485   3.058381   2.502703   1.086459
     8  H    2.228701   2.502620   2.502534   3.058400   1.086461
     9  H    2.228702   3.058351   2.502688   2.502573   1.086464
                    6          7          8          9
     6  I    0.000000
     7  H    2.800460   0.000000
     8  H    2.800567   1.871035   0.000000
     9  H    2.800363   1.871041   1.871044   0.000000
 Stoichiometry    CH6IN
 Framework group  C1[X(CH6IN)]
 Deg. of freedom    21
 Full point group                 C1      NOp   1
 RotChk:  IX=2 Diff= 2.01D+00
 Largest Abelian subgroup         C1      NOp   1
 Largest concise Abelian subgroup C1      NOp   1
                         Standard orientation:                         
 ---------------------------------------------------------------------
 Center     Atomic      Atomic             Coordinates (Angstroms)
 Number     Number       Type             X           Y           Z
 ---------------------------------------------------------------------
      1          7           0       -3.556953    0.000048   -0.000015
      2          1           0       -3.891583   -0.930201   -0.210150
      3          1           0       -3.891587    0.283202    0.910667
      4          1           0       -3.891553    0.647157   -0.700581
      5          6           0       -1.723600   -0.000087    0.000030
      6         53           0        0.976182    0.000006   -0.000002
      7          1           0       -1.607547   -0.321024   -1.031438
      8          1           0       -1.607622   -0.732917    0.793697
      9          1           0       -1.607477    1.053652    0.237839
 ---------------------------------------------------------------------
 Rotational constants (GHZ):          80.4984923           1.3230432           1.3230432
 Leave Link  202 at Thu Dec 11 19:54:52 2025, MaxMem=   268435456 cpu:               1.0 elap:               0.0
 (Enter D:\G16W\l301.exe)
 Standard basis: VSTO-6G (5D, 7F)
 Ernie: Thresh=  0.10000D-02 Tol=  0.10000D-05 Strict=F.
 EHB=         0.000000000 Number of Hydrogen Bonds=     0
  NNHCO=     0 NNPyr=     0 NCTC=     0               EPep=         0.000000000
    EC=        37.540227999  ECS=         1.254258153   EG=         0.222548803
   EHC=         0.000468497  EAt=       -21.558449737  AtH=         0.991250372
 EPDDG=         0.000000000  ECC=        39.017503452 EAtT=        22.549700110
  EHyb=         0.000000000
 There are    24 symmetry adapted cartesian basis functions of A   symmetry.
 There are    23 symmetry adapted basis functions of A   symmetry.
    23 basis functions,   144 primitive gaussians,    24 cartesian basis functions
    11 alpha electrons       11 beta electrons
       nuclear repulsion energy        61.5672035617 Hartrees.
 IExCor=    0 DFT=F Ex=HF Corr=None ExCW=0 ScaHFX=  1.000000
 ScaDFX=  1.000000  1.000000  1.000000  1.000000 ScalE2=  1.000000  1.000000
 IRadAn=      5 IRanWt=     -1 IRanGd=            0 ICorTp=0 IEmpDi=251
 Integral buffers will be    131072 words long.
 Regular integral format.
 Two-electron integral symmetry is turned off.
 R6Disp:  PM7 Dispersion energy=       -0.0007597291 Hartrees.
 Nuclear repulsion after empirical dispersion term =       61.5664438326 Hartrees.
 Leave Link  301 at Thu Dec 11 19:54:52 2025, MaxMem=   268435456 cpu:               0.0 elap:               0.1
 (Enter D:\G16W\l302.exe)
 Do NDO integrals.
 NPDir=0 NMtPBC=     1 NCelOv=     1 NCel=       1 NClECP=     1 NCelD=      1
         NCelK=      1 NCelE2=     1 NClLst=     1 CellRange=     0.0.
 One-electron integrals computed using PRISM.
 NBasis=    23 RedAO= F EigKep=  0.00D+00  NBF=    23
 NBsUse=    23 1.00D-04 EigRej=  0.00D+00 NBFU=    23
 Leave Link  302 at Thu Dec 11 19:54:52 2025, MaxMem=   268435456 cpu:               0.0 elap:               0.1
 (Enter D:\G16W\l303.exe)
 DipDrv:  MaxL=1.
 Leave Link  303 at Thu Dec 11 19:54:52 2025, MaxMem=   268435456 cpu:               0.0 elap:               0.0
 (Enter D:\G16W\l401.exe)
 Initial guess from the checkpoint file:  ".\Gau-19520.chk"
 B after Tr=     0.000000    0.000000    0.000000
         Rot=    0.704560   -0.060232    0.703971    0.066273 Ang= -90.41 deg.
 Guess basis will be translated and rotated to current coordinates.
 JPrj=0 DoOrth=T DoCkMO=T.
 Leave Link  401 at Thu Dec 11 19:54:52 2025, MaxMem=   268435456 cpu:               0.0 elap:               0.1
 (Enter D:\G16W\l502.exe)
 Keep J ints in memory in canonical form, NReq=1849434.
 FoFCou: FMM=F IPFlag=           0 FMFlag=           0 FMFlg1=           0
         NFxFlg=           0 DoJE=F BraDBF=F KetDBF=F FulRan=T
         wScrn=  0.000000 ICntrl=       600 IOpCl=  2 I1Cent=           0 NGrid=           0
         NMat0=    1 NMatS0=     71 NMatT0=    0 NMatD0=    1 NMtDS0=    0 NMtDT0=    0
 Symmetry not used in FoFCou.
 Two-electron integral symmetry not used.
 Closed shell SCF:
 Using DIIS extrapolation, IDIIS=  1040.
 Overlap will be assumed to be unity.
 NGot=   268435456 LenX=   268372139 LenY=   268371122
 Requested convergence on RMS density matrix=1.00D-08 within 128 cycles.
 Requested convergence on MAX density matrix=1.00D-06.
 Requested convergence on             energy=1.00D-06.
 No special actions if energy rises.

 Cycle   1  Pass 1  IDiag  1:
 E= 0.451288138006092E-01
 DIIS: error= 5.16D-03 at cycle   1 NSaved=   1.
 NSaved= 1 IEnMin= 1 EnMin= 0.451288138006092E-01 IErMin= 1 ErrMin= 5.16D-03
 ErrMax= 5.16D-03  0.00D+00 EMaxC= 1.00D-01 BMatC= 5.93D-04 BMatP= 5.93D-04
 IDIUse=3 WtCom= 9.48D-01 WtEn= 5.16D-02
 Coeff-Com:  0.100D+01
 Coeff-En:   0.100D+01
 Coeff:      0.100D+01
 GapD=    2.000 DampG=2.000 DampE=1.000 DampFc=2.0000 IDamp=-1.
 RMSDP=2.20D-03 MaxDP=1.90D-02              OVMax= 0.00D+00

 Cycle   2  Pass 1  IDiag  3:
 E= 0.433910264744100E-01 Delta-E=       -0.001737787326 Rises=F Damp=F
 DIIS: error= 1.99D-03 at cycle   2 NSaved=   2.
 NSaved= 2 IEnMin= 2 EnMin= 0.433910264744100E-01 IErMin= 2 ErrMin= 1.99D-03
 ErrMax= 1.99D-03  0.00D+00 EMaxC= 1.00D-01 BMatC= 6.12D-05 BMatP= 5.93D-04
 IDIUse=3 WtCom= 9.80D-01 WtEn= 1.99D-02
 Coeff-Com: -0.273D+00 0.127D+01
 Coeff-En:   0.000D+00 0.100D+01
 Coeff:     -0.267D+00 0.127D+01
 Gap=     0.261 Goal=   None    Shift=    0.000
 RMSDP=1.24D-03 MaxDP=1.13D-02 DE=-1.74D-03 OVMax= 1.50D-02

 Cycle   3  Pass 1  IDiag  3:
 E= 0.430426857701889E-01 Delta-E=       -0.000348340704 Rises=F Damp=F
 DIIS: error= 4.77D-04 at cycle   3 NSaved=   3.
 NSaved= 3 IEnMin= 3 EnMin= 0.430426857701889E-01 IErMin= 3 ErrMin= 4.77D-04
 ErrMax= 4.77D-04  0.00D+00 EMaxC= 1.00D-01 BMatC= 5.32D-06 BMatP= 6.12D-05
 IDIUse=3 WtCom= 9.95D-01 WtEn= 4.77D-03
 Coeff-Com:  0.113D-01-0.344D+00 0.133D+01
 Coeff-En:   0.000D+00 0.000D+00 0.100D+01
 Coeff:      0.113D-01-0.343D+00 0.133D+01
 Gap=     0.264 Goal=   None    Shift=    0.000
 RMSDP=5.02D-04 MaxDP=4.68D-03 DE=-3.48D-04 OVMax= 6.23D-03

 Cycle   4  Pass 1  IDiag  3:
 E= 0.430021083960312E-01 Delta-E=       -0.000040577374 Rises=F Damp=F
 DIIS: error= 1.18D-04 at cycle   4 NSaved=   4.
 NSaved= 4 IEnMin= 4 EnMin= 0.430021083960312E-01 IErMin= 4 ErrMin= 1.18D-04
 ErrMax= 1.18D-04  0.00D+00 EMaxC= 1.00D-01 BMatC= 3.16D-07 BMatP= 5.32D-06
 IDIUse=3 WtCom= 9.99D-01 WtEn= 1.18D-03
 Coeff-Com:  0.316D-02 0.603D-01-0.450D+00 0.139D+01
 Coeff-En:   0.000D+00 0.000D+00 0.000D+00 0.100D+01
 Coeff:      0.315D-02 0.602D-01-0.450D+00 0.139D+01
 Gap=     0.264 Goal=   None    Shift=    0.000
 RMSDP=1.29D-04 MaxDP=1.20D-03 DE=-4.06D-05 OVMax= 1.60D-03

 Cycle   5  Pass 1  IDiag  3:
 E= 0.429997460543774E-01 Delta-E=       -0.000002362342 Rises=F Damp=F
 DIIS: error= 2.28D-05 at cycle   5 NSaved=   5.
 NSaved= 5 IEnMin= 5 EnMin= 0.429997460543774E-01 IErMin= 5 ErrMin= 2.28D-05
 ErrMax= 2.28D-05  0.00D+00 EMaxC= 1.00D-01 BMatC= 1.71D-08 BMatP= 3.16D-07
 IDIUse=1 WtCom= 1.00D+00 WtEn= 0.00D+00
 Coeff-Com: -0.264D-02 0.242D-01-0.220D-01-0.278D+00 0.128D+01
 Coeff:     -0.264D-02 0.242D-01-0.220D-01-0.278D+00 0.128D+01
 Gap=     0.264 Goal=   None    Shift=    0.000
 RMSDP=2.28D-05 MaxDP=1.79D-04 DE=-2.36D-06 OVMax= 2.41D-04

 Cycle   6  Pass 1  IDiag  3:
 E= 0.429996558104051E-01 Delta-E=       -0.000000090244 Rises=F Damp=F
 DIIS: error= 3.24D-06 at cycle   6 NSaved=   6.
 NSaved= 6 IEnMin= 6 EnMin= 0.429996558104051E-01 IErMin= 6 ErrMin= 3.24D-06
 ErrMax= 3.24D-06  0.00D+00 EMaxC= 1.00D-01 BMatC= 4.79D-10 BMatP= 1.71D-08
 IDIUse=1 WtCom= 1.00D+00 WtEn= 0.00D+00
 Coeff-Com:  0.679D-03-0.106D-01 0.269D-01 0.206D-01-0.347D+00 0.131D+01
 Coeff:      0.679D-03-0.106D-01 0.269D-01 0.206D-01-0.347D+00 0.131D+01
 Gap=     0.264 Goal=   None    Shift=    0.000
 RMSDP=3.85D-06 MaxDP=3.14D-05 DE=-9.02D-08 OVMax= 4.06D-05

 Cycle   7  Pass 1  IDiag  3:
 E= 0.429996532382120E-01 Delta-E=       -0.000000002572 Rises=F Damp=F
 DIIS: error= 7.84D-07 at cycle   7 NSaved=   7.
 NSaved= 7 IEnMin= 7 EnMin= 0.429996532382120E-01 IErMin= 7 ErrMin= 7.84D-07
 ErrMax= 7.84D-07  0.00D+00 EMaxC= 1.00D-01 BMatC= 2.07D-11 BMatP= 4.79D-10
 IDIUse=1 WtCom= 1.00D+00 WtEn= 0.00D+00
 Coeff-Com: -0.187D-03 0.329D-02-0.893D-02-0.157D-02 0.978D-01-0.506D+00
 Coeff-Com:  0.142D+01
 Coeff:     -0.187D-03 0.329D-02-0.893D-02-0.157D-02 0.978D-01-0.506D+00
 Coeff:      0.142D+01
 Gap=     0.264 Goal=   None    Shift=    0.000
 RMSDP=8.73D-07 MaxDP=8.50D-06 DE=-2.57D-09 OVMax= 8.03D-06

 Cycle   8  Pass 1  IDiag  3:
 E= 0.429996531017594E-01 Delta-E=       -0.000000000136 Rises=F Damp=F
 DIIS: error= 3.39D-07 at cycle   8 NSaved=   8.
 NSaved= 8 IEnMin= 8 EnMin= 0.429996531017594E-01 IErMin= 8 ErrMin= 3.39D-07
 ErrMax= 3.39D-07  0.00D+00 EMaxC= 1.00D-01 BMatC= 1.13D-12 BMatP= 2.07D-11
 IDIUse=1 WtCom= 1.00D+00 WtEn= 0.00D+00
 Coeff-Com:  0.328D-04-0.528D-03 0.128D-02 0.101D-02-0.178D-01 0.926D-01
 Coeff-Com: -0.376D+00 0.130D+01
 Coeff:      0.328D-04-0.528D-03 0.128D-02 0.101D-02-0.178D-01 0.926D-01
 Coeff:     -0.376D+00 0.130D+01
 Gap=     0.264 Goal=   None    Shift=    0.000
 RMSDP=2.94D-07 MaxDP=3.54D-06 DE=-1.36D-10 OVMax= 3.38D-06

 Cycle   9  Pass 1  IDiag  3:
 E= 0.429996530884011E-01 Delta-E=       -0.000000000013 Rises=F Damp=F
 DIIS: error= 1.55D-07 at cycle   9 NSaved=   9.
 NSaved= 9 IEnMin= 9 EnMin= 0.429996530884011E-01 IErMin= 9 ErrMin= 1.55D-07
 ErrMax= 1.55D-07  0.00D+00 EMaxC= 1.00D-01 BMatC= 1.97D-13 BMatP= 1.13D-12
 IDIUse=1 WtCom= 1.00D+00 WtEn= 0.00D+00
 Coeff-Com: -0.570D-05 0.532D-04-0.593D-04-0.469D-03 0.270D-02-0.130D-01
 Coeff-Com:  0.103D+00-0.826D+00 0.173D+01
 Coeff:     -0.570D-05 0.532D-04-0.593D-04-0.469D-03 0.270D-02-0.130D-01
 Coeff:      0.103D+00-0.826D+00 0.173D+01
 Gap=     0.264 Goal=   None    Shift=    0.000
 RMSDP=1.91D-07 MaxDP=2.34D-06 DE=-1.34D-11 OVMax= 2.24D-06

 Cycle  10  Pass 1  IDiag  3:
 E= 0.429996530850048E-01 Delta-E=       -0.000000000003 Rises=F Damp=F
 DIIS: error= 3.46D-08 at cycle  10 NSaved=  10.
 NSaved=10 IEnMin=10 EnMin= 0.429996530850048E-01 IErMin=10 ErrMin= 3.46D-08
 ErrMax= 3.46D-08  0.00D+00 EMaxC= 1.00D-01 BMatC= 1.22D-14 BMatP= 1.97D-13
 IDIUse=1 WtCom= 1.00D+00 WtEn= 0.00D+00
 Coeff-Com: -0.114D-05 0.358D-04-0.954D-04-0.481D-04 0.134D-02-0.649D-02
 Coeff-Com:  0.863D-02 0.110D+00-0.530D+00 0.142D+01
 Coeff:     -0.114D-05 0.358D-04-0.954D-04-0.481D-04 0.134D-02-0.649D-02
 Coeff:      0.863D-02 0.110D+00-0.530D+00 0.142D+01
 Gap=     0.264 Goal=   None    Shift=    0.000
 RMSDP=5.04D-08 MaxDP=6.19D-07 DE=-3.40D-12 OVMax= 5.96D-07

 Cycle  11  Pass 1  IDiag  3:
 E= 0.429996530850829E-01 Delta-E=        0.000000000000 Rises=F Damp=F
 DIIS: error= 2.49D-09 at cycle  11 NSaved=  11.
 NSaved=11 IEnMin=10 EnMin= 0.429996530850048E-01 IErMin=11 ErrMin= 2.49D-09
 ErrMax= 2.49D-09  0.00D+00 EMaxC= 1.00D-01 BMatC= 2.62D-16 BMatP= 1.22D-14
 IDIUse=1 WtCom= 1.00D+00 WtEn= 0.00D+00
 Coeff-Com:  0.312D-06-0.632D-05 0.154D-04 0.136D-04-0.243D-03 0.124D-02
 Coeff-Com: -0.411D-02 0.792D-02 0.365D-01-0.246D+00 0.120D+01
 Coeff:      0.312D-06-0.632D-05 0.154D-04 0.136D-04-0.243D-03 0.124D-02
 Coeff:     -0.411D-02 0.792D-02 0.365D-01-0.246D+00 0.120D+01
 Gap=     0.264 Goal=   None    Shift=    0.000
 RMSDP=3.33D-09 MaxDP=3.45D-08 DE= 7.82D-14 OVMax= 3.30D-08

 Cycle  12  Pass 2  IDiag  1:
 SCF Done:  E(RPM7) =  0.429996530851E-01 A.U. after   12 cycles
            NFock= 11  Conv=0.33D-08     -V/T= 1.0012
 KE=-3.641674247950D+01 PE=-7.251835176376D+01 EE= 4.741165006376D+01
 Leave Link  502 at Thu Dec 11 19:54:53 2025, MaxMem=   268435456 cpu:               1.0 elap:               0.5
 (Enter D:\G16W\l801.exe)
 Range of M.O.s used for correlation:     1    23
 NBasis=    23 NAE=    11 NBE=    11 NFC=     0 NFV=     0
 NROrb=     23 NOA=    11 NOB=    11 NVA=    12 NVB=    12
 Leave Link  801 at Thu Dec 11 19:54:53 2025, MaxMem=   268435456 cpu:               0.0 elap:               0.0
 (Enter D:\G16W\l1101.exe)
 Using compressed storage, NAtomX=     9.
 Will process     10 centers per pass.
 R6Disp: Adding PM7 dispersion energy 1st derivatives to the gradient.
 Leave Link 1101 at Thu Dec 11 19:54:53 2025, MaxMem=   268435456 cpu:               0.0 elap:               0.1
 (Enter D:\G16W\l1102.exe)
 Symmetrizing basis deriv contribution to polar:
 IMax=3 JMax=2 DiffMx= 0.00D+00
 Leave Link 1102 at Thu Dec 11 19:54:53 2025, MaxMem=   268435456 cpu:               0.0 elap:               0.1
 (Enter D:\G16W\l1110.exe)
 Forming Gx(P) for the SCF density, NAtomX=     9.
 Integral derivatives from FoFJK, PRISM(SPDF).
 Do as many integral derivatives as possible in FoFJK.
 G2DrvN: MDV=     268375778.
 G2DrvN: will do    10 centers at a time, making    1 passes.
 Calling FoFCou, ICntrl=  3107 FMM=F I1Cent=   0 AccDes= 0.00D+00.
 FoFJK:  IHMeth=43 ICntrl=    3107 DoSepK=F KAlg= 0 I1Cent=           0 FoldK=F
 IRaf=         0 NMat=       1 IRICut=       1 DoRegI=T DoRafI=F ISym2E= 0 IDoP0=3 IntGTp=3.
 FoFCou: FMM=F IPFlag=           0 FMFlag=      100000 FMFlg1=           0
         NFxFlg=           0 DoJE=F BraDBF=F KetDBF=F FulRan=T
         wScrn=  0.000000 ICntrl=      3107 IOpCl=  0 I1Cent=           0 NGrid=           0
         NMat0=    1 NMatS0=      1 NMatT0=    0 NMatD0=    1 NMtDS0=    0 NMtDT0=    0
 Symmetry not used in FoFCou.
 End of G2Drv F.D. properties file   721 does not exist.
 End of G2Drv F.D. properties file   722 does not exist.
 End of G2Drv F.D. properties file   788 does not exist.
 Leave Link 1110 at Thu Dec 11 19:54:53 2025, MaxMem=   268435456 cpu:               0.0 elap:               0.1
 (Enter D:\G16W\l1002.exe)
 Minotr:  Closed shell wavefunction.
          IDoAtm=111111111
          Direct CPHF calculation.
          Differentiating once with respect to electric field.
                with respect to dipole field.
          Differentiating once with respect to nuclear coordinates.
          Electric field/nuclear overlap derivatives assumed to be zero.
          Requested convergence is 1.0D-08 RMS, and 1.0D-07 maximum.
          NewPWx=T KeepS1=F KeepF1=F KeepIn=T MapXYZ=F SortEE=F KeepMc=T.
 Keep J ints in memory in canonical form, NReq=1850398.
 FoFCou: FMM=F IPFlag=           0 FMFlag=           0 FMFlg1=           0
         NFxFlg=           0 DoJE=F BraDBF=F KetDBF=F FulRan=T
         wScrn=  0.000000 ICntrl=       600 IOpCl=  2 I1Cent=           0 NGrid=           0
         NMat0=    1 NMatS0=     71 NMatT0=    0 NMatD0=    1 NMtDS0=    0 NMtDT0=    0
 Symmetry not used in FoFCou.
 Two-electron integral symmetry not used.
          MDV=     268435456 using IRadAn=       1.
          Solving linear equations separately, MaxMat=       0.
          There are    30 degrees of freedom in the 1st order CPHF.  IDoFFX=5 NUNeed=    30.
[...]
     20 -0.185584D-01 -0.335163D-02 -0.335651D-02  0.673745D-02 -0.101959D-02
     21  0.917382D-03  0.759677D-03  0.757215D-03  0.376821D-03  0.133085D-02
     22  0.407920D-02  0.132988D-02  0.757691D-03 -0.161136D-02  0.760225D-03
     23  0.404577D-02  0.758137D-03  0.133278D-02 -0.162396D-02  0.756605D-03
     24  0.635255D-03 -0.918435D-04 -0.925870D-04  0.342018D-03  0.298297D-04
     25  0.749666D-03  0.249792D-04 -0.824084D-04 -0.110016D-03 -0.963142D-04
     26  0.941045D-03 -0.869966D-04  0.212923D-04 -0.777783D-04 -0.872491D-04
     27  0.193399D-02 -0.745941D-03  0.149281D-02 -0.213946D-02 -0.746166D-03
     28 -0.341796D-02 -0.129785D-02 -0.501248D-05  0.374063D-02  0.130244D-02
     29 -0.934064D-04 -0.780151D-02  0.775321D-02  0.287920D-03  0.482537D-04
     30  0.955099D-04 -0.775375D-02  0.780257D-02 -0.290073D-03 -0.488284D-04
     31  0.000000D+00 -0.770588D-02  0.770538D-02  0.214437D-05  0.000000D+00
     32  0.770981D-04  0.770589D-02  0.000000D+00  0.158240D-02 -0.770547D-02
     33  0.266014D-03  0.775365D-02  0.488680D-04  0.100440D-02 -0.780255D-02
     34  0.170237D-03  0.780152D-02 -0.483165D-04  0.129662D-02 -0.775315D-02
     35 -0.265745D-03 -0.478074D-04 -0.775420D-02 -0.100656D-02  0.780198D-02
     36 -0.768286D-04  0.000000D+00 -0.770485D-02 -0.158455D-02  0.770490D-02
     37 -0.172606D-03  0.478185D-04 -0.780203D-02 -0.129233D-02  0.775430D-02
     38 -0.742218D-03 -0.949349D-04 -0.824739D-04  0.684404D-03  0.193752D-03
     39 -0.149601D-03 -0.196971D-03  0.903232D-04  0.367782D-03  0.909765D-04
     40  0.295563D-03 -0.936955D-04  0.194411D-03 -0.344439D-03 -0.844501D-04
               16            17            18            19            20 
     16  0.697062D-01
     17 -0.445494D-02  0.697062D-01
     18  0.677186D-02  0.493229D-03  0.494729D-01
     19  0.483138D-03  0.674725D-02 -0.726982D-02  0.491305D-01
     20  0.502636D-03  0.516992D-03 -0.713126D-02 -0.683214D-02  0.489512D-01
     21 -0.162358D-02 -0.161180D-02 -0.596827D-02 -0.459536D-02 -0.234502D-02
     22 -0.162191D-02  0.374658D-03 -0.592595D-02 -0.173672D-02 -0.525391D-02
     23  0.386952D-03 -0.162133D-02 -0.102905D-02 -0.657523D-02 -0.529339D-02
     24 -0.949268D-04 -0.919033D-04  0.399480D-02  0.425401D-02  0.165572D-05
     25 -0.588958D-04  0.323240D-03  0.420632D-02  0.333700D-04  0.394222D-02
     26  0.308668D-03 -0.773551D-04  0.152850D-03  0.389268D-02  0.407288D-02
     27  0.427780D-02 -0.213905D-02  0.303479D-01 -0.152762D-01 -0.151103D-01
     28 -0.177130D-04 -0.372249D-02 -0.354700D-04 -0.260455D-01  0.261046D-01
     29 -0.129626D-02  0.100838D-02 -0.340054D-03  0.285812D-02 -0.251283D-02
     30 -0.100262D-02  0.129271D-02 -0.218961D-02 -0.331949D-03  0.252002D-02
     31 -0.158451D-02  0.158230D-02  0.157896D-02 -0.157830D-02 -0.439968D-05
     32 -0.173041D-05 -0.158061D-02 -0.231474D-04  0.222987D-02 -0.220146D-02
     33  0.291907D-03 -0.129628D-02 -0.187271D-02 -0.960207D-03  0.283139D-02
     34 -0.289985D-03 -0.100669D-02  0.189586D-02 -0.220656D-02  0.306974D-03
     35  0.129272D-02 -0.286138D-03  0.293734D-03  0.253853D-02 -0.282698D-02
     36  0.158636D-02 -0.181258D-05 -0.155583D-02 -0.651541D-03  0.220586D-02
     37  0.100447D-02  0.287781D-03  0.221275D-02 -0.189789D-02 -0.318555D-03
     38 -0.318176D-03 -0.382634D-03  0.310849D-02 -0.418009D-02  0.221857D-03
     39  0.345944D-03 -0.697995D-03 -0.295676D-02 -0.615225D-03  0.437042D-02
     40  0.688393D-03 -0.360281D-03  0.869561D-03  0.256113D-02 -0.427673D-02
               21            22            23            24            25 
     21  0.117008D-01
     22 -0.328645D-02  0.112800D-01
     23 -0.365778D-02 -0.323406D-02  0.116444D-01
     24  0.212741D-02 -0.255110D-02 -0.261644D-02  0.131385D-01
     25 -0.344051D-02  0.113158D-02 -0.705951D-03  0.554556D-02  0.126164D-01
     26 -0.169868D-02 -0.163124D-02  0.338443D-03  0.586166D-02  0.611894D-02
     27 -0.788281D-03 -0.732976D-03  0.153549D-02 -0.390018D-03 -0.143334D-03
     28  0.169695D-02 -0.147214D-02 -0.233537D-03  0.715725D-03 -0.632163D-03
     29  0.497274D-02 -0.457609D-02 -0.398582D-03  0.186362D-02 -0.177161D-02
     30 -0.501036D-02  0.232199D-03  0.477873D-02 -0.186900D-02  0.950079D-03
     31  0.417716D-04  0.486015D-02 -0.490054D-02  0.630925D-05  0.922945D-03
     32  0.514224D-02 -0.491915D-02 -0.225027D-03  0.190180D-02 -0.184393D-02
     33 -0.484086D-02 -0.110865D-03  0.495228D-02 -0.183081D-02  0.877763D-03
     34  0.211272D-03  0.451709D-02 -0.472699D-02  0.444917D-04  0.850629D-03
     35  0.479908D-02 -0.474928D-02 -0.517442D-04  0.182451D-02 -0.180070D-02
     36 -0.518402D-02  0.590044D-04  0.512557D-02 -0.190811D-02  0.920985D-03
     37 -0.131887D-03  0.468696D-02 -0.455371D-02 -0.328053D-04  0.893851D-03
     38  0.381257D-02 -0.259552D-02 -0.903940D-03  0.368227D-03  0.309387D-02
     39  0.182604D-02 -0.438071D-02  0.226046D-02 -0.370982D-02 -0.126301D-03
     40 -0.505287D-03 -0.299558D-02  0.381261D-02  0.394962D-02 -0.590826D-02
               26            27            28            29            30 
     26  0.120553D-01
     27  0.414508D-03  0.287037D-01
     28 -0.961756D-05 -0.288647D-04  0.288259D-01
     29 -0.685591D-04 -0.419483D-03 -0.242178D-02  0.104531D-01
     30  0.907107D-03 -0.245459D-02  0.759237D-03  0.488902D-02  0.104922D-01
     31 -0.941223D-03  0.170352D-02  0.987092D-03  0.523183D-02  0.518895D-02
     32 -0.343168D-04 -0.292971D-04 -0.174142D-02  0.302204D-03 -0.537660D-02
     33  0.941349D-03 -0.206440D-02  0.143960D-02 -0.526184D-02  0.226596D-03
     34 -0.906980D-03  0.209371D-02  0.166745D-02 -0.491902D-02 -0.507666D-02
     35  0.000000D+00  0.360855D-03 -0.242670D-02  0.185902D-03 -0.525965D-02
     36  0.975540D-03 -0.167425D-02  0.754321D-03 -0.537814D-02  0.343542D-03
     37 -0.872789D-03  0.248386D-02  0.982176D-03 -0.503532D-02 -0.495972D-02
     38 -0.593150D-02 -0.484665D-03  0.371139D-03  0.190140D-02 -0.179844D-02
     39  0.611058D-02  0.659615D-03  0.289598D-03  0.170921D-02  0.513908D-03
     40 -0.500022D-03  0.433353D-03  0.565064D-03  0.118387D-02  0.105411D-02
               31            32            33            34            35 
     31  0.105027D-01
     32 -0.515166D-02  0.106847D-01
     33 -0.519453D-02  0.500586D-02  0.104943D-01
     34  0.119249D-03  0.523080D-02  0.507316D-02  0.102691D-01
     35 -0.515231D-02  0.301711D-03 -0.514384D-02 -0.503650D-02  0.104521D-01
     36 -0.519518D-02 -0.537709D-02  0.344587D-03 -0.519414D-02  0.500651D-02
     37  0.118599D-03 -0.515215D-02 -0.507654D-02  0.177334D-05  0.511385D-02
     38 -0.126973D-03  0.200834D-02 -0.169149D-02 -0.200262D-04  0.181847D-02
     39 -0.250758D-02  0.190301D-02  0.707715D-03 -0.231377D-02  0.179986D-02
     40 -0.252433D-02  0.127877D-02  0.114901D-02 -0.242944D-02  0.137532D-02
               36            37            38            39            40 
     36  0.107282D-01
     37  0.518946D-02  0.102678D-01
     38 -0.188137D-02 -0.209903D-03  0.100442D-01
     39  0.604563D-03 -0.241692D-02 -0.310883D-02  0.106495D-01
     40  0.124557D-02 -0.233288D-02 -0.376200D-02 -0.313231D-02  0.100199D-01
 Leave Link  716 at Thu Dec 11 19:54:57 2025, MaxMem=   268435456 cpu:               0.0 elap:               0.1
 (Enter D:\G16W\l9999.exe)

 ----------------------------------------------------------------------

 Electric dipole moment (input orientation):
 (Debye = 10**-18 statcoulomb cm , SI units = C m)
                  (au)            (Debye)         (10**-30 SI)
   Tot        0.543330D+01      0.138101D+02      0.460655D+02
   x          0.543330D+01      0.138101D+02      0.460655D+02
   y         -0.614784D-03     -0.156262D-02     -0.521235D-02
   z          0.180651D-02      0.459168D-02      0.153162D-01

 Dipole polarizability, Alpha (input orientation).
 (esu units = cm**3 , SI units = C**2 m**2 J**-1)
 Alpha(0;0):
               (au)            (10**-24 esu)      (10**-40 SI)
   iso        0.531868D+02      0.788148D+01      0.876933D+01
   aniso      0.112522D+03      0.166740D+02      0.185524D+02
   xx         0.128198D+03      0.189970D+02      0.211370D+02
   yx        -0.577042D+00     -0.855088D-01     -0.951414D-01
   yy         0.158995D+02      0.235607D+01      0.262148D+01
   zx         0.323523D-01      0.479411D-02      0.533417D-02
   zy        -0.106960D+00     -0.158498D-01     -0.176353D-01
   zz         0.154630D+02      0.229138D+01      0.254950D+01

 First dipole hyperpolarizability, Beta (input orientation).
 ||, _|_  parallel and perpendicular components, (z) with respect to z axis,
 vector components x,y,z.  Values do not include the 1/n! factor of 1/2.
 (esu units = statvolt**-1 cm**4 , SI units = C**3 m**3 J**-2)
 Beta(0;0,0):
               (au)            (10**-30 esu)      (10**-50 SI)
   || (z)     0.142881D+01      0.123438D-01      0.458127D-02
   _|_(z)     0.476269D+00      0.411459D-02      0.152709D-02
   x          0.155874D+05      0.134663D+03      0.499789D+02
   y         -0.349441D+02     -0.301890D+00     -0.112043D+00
   z          0.714404D+01      0.617189D-01      0.229064D-01
   ||         0.311749D+04      0.269327D+02      0.999580D+01
   xxx        0.512984D+04      0.443178D+02      0.164481D+02
   xxy       -0.117553D+02     -0.101556D+00     -0.376916D-01
   yxy        0.336371D+02      0.290599D+00      0.107853D+00
   yyy        0.355316D+01      0.306965D-01      0.113927D-01
   xxz        0.247612D+01      0.213918D-01      0.793934D-02
   yxz       -0.226234D+00     -0.195449D-02     -0.725388D-03
   yyz       -0.445205D+00     -0.384622D-02     -0.142749D-02
   zxz        0.323234D+02      0.279249D+00      0.103641D+00
   zyz       -0.344592D+01     -0.297701D-01     -0.110489D-01
   zzz        0.350429D+00      0.302744D-02      0.112360D-02

 ----------------------------------------------------------------------

 Dipole orientation:
     7          0.00206300          0.00113473          6.78388111
     1          0.06428148          1.80254038          7.41697704
     1         -1.58873101         -0.84555733          7.41809789
     1          1.53109528         -0.95305942          7.41737759
     6          0.00123249          0.00018768          3.32518670
    53          0.00000868         -0.00121724         -1.78391817
     1          1.80353531          0.95952358          3.10221491
     1         -1.73086093          1.08131505          3.10303036
     1         -0.06913721         -2.04045782          3.10348599

 Electric dipole moment (dipole orientation):
 (Debye = 10**-18 statcoulomb cm , SI units = C m)
                  (au)            (Debye)         (10**-30 SI)
   Tot        0.543330D+01      0.138101D+02      0.460655D+02
   x          0.000000D+00      0.000000D+00      0.000000D+00
   y          0.000000D+00      0.000000D+00      0.000000D+00
   z          0.543330D+01      0.138101D+02      0.460655D+02

 Dipole polarizability, Alpha (dipole orientation).
 (esu units = cm**3 , SI units = C**2 m**2 J**-1)
 Alpha(0;0):
               (au)            (10**-24 esu)      (10**-40 SI)
   iso        0.531868D+02      0.788148D+01      0.876933D+01
   aniso      0.112522D+03      0.166740D+02      0.185524D+02
   xx         0.154630D+02      0.229138D+01      0.254951D+01
   yx         0.106818D+00      0.158287D-01      0.176119D-01
   yy         0.158994D+02      0.235604D+01      0.262145D+01
   zx         0.505485D-02      0.749052D-03      0.833433D-03
   zy        -0.564372D+00     -0.836312D-01     -0.930523D-01
   zz         0.128198D+03      0.189970D+02      0.211370D+02

 First dipole hyperpolarizability, Beta (dipole orientation).
 ||, _|_  parallel and perpendicular components, (z) with respect to z axis,
 vector components x,y,z.  Values do not include the 1/n! factor of 1/2.
 (esu units = statvolt**-1 cm**4 , SI units = C**3 m**3 J**-2)
 Beta(0;0,0):
               (au)            (10**-30 esu)      (10**-50 SI)
   || (z)     0.311748D+04      0.269326D+02      0.999577D+01
   _|_(z)     0.103916D+04      0.897754D+01      0.333192D+01
   x         -0.196517D+01     -0.169775D-01     -0.630104D-02
   y         -0.331801D+02     -0.286651D+00     -0.106388D+00
   z          0.155874D+05      0.134663D+03      0.499789D+02
   ||         0.311749D+04      0.269327D+02      0.999580D+01
   xxx       -0.319356D+00     -0.275899D-02     -0.102397D-02
   xxy       -0.344198D+01     -0.297360D-01     -0.110362D-01
   yxy        0.457621D+00      0.395349D-02      0.146730D-02
   yyy        0.356442D+01      0.307938D-01      0.114288D-01
   xxz        0.323229D+02      0.279245D+00      0.103639D+00
   yxz        0.223478D+00      0.193068D-02      0.716552D-03
   yyz        0.336339D+02      0.290571D+00      0.107843D+00
   zxz       -0.793321D+00     -0.685367D-02     -0.254367D-02
   zyz       -0.111825D+02     -0.966080D-01     -0.358551D-01
   zzz        0.512985D+04      0.443179D+02      0.164481D+02

 ----------------------------------------------------------------------
 1|1|UNPC-HS-R-MBKE-2023|Freq|RPM7|ZDO|C1H6I1N1|15816|11-Dec-2025|0||#P
 M7 opt(ts,noeig,calcall)||title: NH3_TS_Final||0,1|N,3.5898754919,0.00
 01943981,0.0001019652|H,3.9250141844,0.9534230201,-0.0326033829|H,3.92
 51579556,-0.4479889342,0.8419747381|H,3.9253192937,-0.5046897995,-0.80
 89726944|C,1.7596131455,-0.0000997126,-0.0000671434|I,-0.944008856,-0.
 0005373182,-0.0003185385|H,1.6419961015,0.5076802082,-0.9537864517|H,1
 .6418130268,0.5719178688,0.916542809|H,1.6421596567,-1.0799537308,0.03
 70096985||Version=EM64W-G16RevA.03|State=1-A|HF=0.0430011|RMSD=9.432e-
 009|RMSF=4.697e-007|ZeroPoint=0.067308|Thermal=0.0726555|Dipole=5.4333
 044,-0.0006148,0.0018065|DipoleDeriv=-2.3974428,0.0025185,0.0000957,-0
 .0001323,-0.5179103,0.0003228,-0.0002346,0.0002976,-0.5162451,0.118314
 3,-0.0551168,0.0020046,0.18249,0.3575332,-0.005154,-0.0062699,-0.00512
 6,0.2095617,0.1181601,0.0262006,-0.0482994,-0.0859272,0.2422666,-0.061
 4751,0.1612674,-0.0614761,0.3247552,0.1182166,0.0292742,0.0462923,-0.0
 968023,0.2510621,0.0665072,-0.1550172,0.0664793,0.3160069,4.8472509,-0
 .0095899,-0.0002546,0.0025258,-0.2350117,-0.0004217,0.0005939,-0.00060
 77,-0.2384088,-2.1319467,-0.0006398,0.0006469,-0.0006042,-0.7038191,0.
 0011944,-0.0004228,0.0014093,-0.6972795,-0.2237491,-0.0199672,0.040436
 9,0.0685328,0.1756275,-0.0391618,-0.1295995,-0.0393419,0.2267317,-0.22
 3784,-0.0224567,-0.0388203,0.0772835,0.181082,0.0417859,0.1246068,0.04
 19245,0.2210717,-0.2250272,0.0497765,-0.002102,-0.1473703,0.2491671,-0
 .0035976,0.0050766,-0.0035592,0.1538049|Polar=128.1980114,-0.5770422,1
 5.899531,0.0323523,-0.1069596,15.4629976|HyperPolar=5129.8413558,-11.7
 552695,33.6371469,3.5531578,2.4761212,-0.2262341,-0.4452048,32.3234496
 ,-3.4459219,0.3504292|PG=C01 [X(C1H6I1N1)]|NImag=1||0.23324346,-0.0000
 3423,0.44561524,-0.00001958,0.,0.44561529,-0.06900936,-0.07601781,0.00
 261014,0.06568431,-0.04663615,-0.21113316,0.00510706,0.06812617,0.2502
 9260,0.00160100,0.00510428,-0.06247355,-0.00233894,-0.00662121,0.05753
 633,-0.06902788,0.03575693,-0.06715824,0.00702546,-0.00517284,0.010500
 40,0.06570492,0.02193994,-0.09519838,0.06179861,0.01171215,-0.01869999
 ,0.03251694,-0.03204864,0.09997068,-0.04120852,0.06180405,-0.17838989,
 -0.00003445,0.00665339,0.00045933,0.06019418,-0.08013601,0.20783768,-0
 .06904864,0.04029356,0.06456685,0.00702755,-0.00587988,-0.01011975,0.0
 0702941,-0.00650882,-0.00973362,0.06572800,0.02472880,-0.10404965,-0.0
 6690565,0.01169313,-0.02129080,-0.03101900,-0.00582796,0.01262681,0.01
 143231,-0.03612016,0.11144793,0.03962621,-0.06690828,-0.16951783,-0.00
 076835,-0.00515878,0.00304804,0.01016477,-0.01442493,-0.03087136,-0.05
 787966,0.08675723,0.19633734,0.08647118,0.00001930,0.00001107,-0.00169
 854,-0.01250070,0.00042905,-0.00170268,0.00587799,-0.01104052,-0.00170
 731,0.00662163,0.01061077,-0.10922138,0.00001921,-0.03306269,0.,-0.014
 66145,0.00011501,0.00002280,0.00689411,0.00066730,0.00028997,0.0077663
 1,0.00062587,-0.00031276,-0.00008638,0.42768966,0.00001106,0.,-0.03306
 268,0.00050329,0.00002301,0.00081955,-0.01294894,0.00028962,0.00027132
 ,0.01244505,-0.00031261,0.00031737,-0.00004962,-0.00000003,0.42768958,
 -0.02811217,-0.00000493,-0.00000281,-0.00147943,0.00191500,-0.00006589
 ,-0.00147904,-0.00090081,0.00169133,-0.00147863,-0.00101471,-0.0016257
 4,0.05238077,0.00000931,0.00000532,0.04310680,-0.00000488,0.00211719,0
 .,0.00053300,-0.00026834,0.00000339,-0.00025095,-0.00019285,0.00004080
 ,-0.00028265,-0.00019867,-0.00004420,0.00000935,-0.00525806,0.00000001
 ,0.00000613,0.00486259,-0.00000280,0.,0.00211717,-0.00001844,0.0000035
 3,-0.00017120,0.00047078,0.00004051,-0.00024705,-0.00045269,-0.0000440
 4,-0.00024163,0.00000536,0.00000001,-0.00525801,0.00000353,0.,0.004862
 57,-0.02817242,0.00884559,-0.01662461,-0.00193684,-0.00017807,-0.00058
 818,-0.00367574,-0.00021913,0.00040997,-0.00193735,0.00058672,-0.00018
 103,-0.00817372,0.00687803,-0.01290469,-0.02097943,-0.00329170,0.00617
 338,0.05603111,0.00497672,-0.00007901,0.00200159,-0.00080022,0.0004776
 7,-0.00019776,-0.00008497,0.00023060,0.00012242,0.00086519,0.00012964,
 0.00000795,0.00736911,-0.08066592,0.07370263,-0.00232138,0.00054221,0.
 00133407,-0.01093739,0.08457786,-0.00935840,0.00200312,-0.00278011,-0.
 00050520,-0.00022661,0.00025692,0.00015802,0.00012237,0.00006604,0.000
 38145,0.00003696,0.00060547,-0.01382697,0.07370241,-0.17985238,0.00435
 101,0.00133372,-0.00125009,0.02054930,-0.08942466,0.20492489,-0.028177
 40,0.00996561,0.01597353,-0.00193706,-0.00013735,0.00059859,-0.0019373
 0,0.00059776,0.00013986,-0.00367564,-0.00024672,-0.00039469,-0.0081789
 2,0.00776339,0.01243442,-0.02097734,-0.00370734,-0.00593687,0.00442243
 ,-0.00085601,-0.00157763,0.05603899,0.00560731,-0.00036573,-0.00216642
 ,-0.00076371,0.00050568,0.00018048,0.00083696,0.00012881,0.00002498,-0
 .00009561,0.00021307,-0.00013257,0.00831653,-0.09122239,-0.07979618,-0
 .00261427,0.00035111,-0.00144475,-0.00074708,0.00817804,0.00671024,-0.
 01234072,0.09738621,0.00898984,-0.00216712,-0.00248838,0.00055851,0.00
 020951,0.00022913,-0.00044037,-0.00000409,0.00060625,-0.00015254,-0.00
 013255,0.00008340,0.01332068,-0.07979606,-0.16929071,-0.00418535,-0.00
 144463,-0.00106106,0.00163789,-0.00876996,-0.02177015,-0.01977770,0.09
 681777,0.19210866,-0.02816795,-0.01882409,0.00064367,-0.00367585,0.000
 46402,-0.00001631,-0.00193688,-0.00045048,-0.00041817,-0.00193715,-0.0
 0042079,0.00044768,-0.00816907,-0.01458255,0.00050410,-0.02098131,0.00
 698906,-0.00024224,0.00442191,0.00178893,-0.00017155,0.00442218,0.0018
 0057,0.00004902,0.05602406,-0.01059692,-0.00384367,0.00016481,0.000178
 73,0.00000127,0.00001015,-0.00010257,0.00046695,-0.00023186,-0.0000378
 5,0.00049577,0.00021620,-0.01562683,-0.21888888,0.00609359,0.00492569,
 -0.00195521,0.00011068,-0.00093698,-0.01339105,0.00574247,-0.00103856,
 -0.01517474,-0.00471288,0.02323533,0.25228964,0.00036114,0.00016404,0.
 00098002,-0.00000652,0.00001015,0.00029546,-0.00094059,-0.00020305,0.0
 0026768,0.00094498,0.00018730,0.00023912,0.00053996,0.00609365,-0.0416
 3401,-0.00017134,0.00011085,0.00124921,0.00152798,0.02122371,-0.000200
 57,-0.00145946,-0.02019349,0.00158293,-0.00079614,-0.00739318,0.037220
 15||-0.00000074,0.00000002,0.,-0.00000009,-0.00000015,0.,-0.00000012,0
 .00000007,-0.00000014,-0.00000013,0.00000008,0.00000013,0.00000204,-0.
 00000001,0.,0.00000026,-0.00000003,-0.00000001,-0.00000041,-0.00000020
 ,0.00000038,-0.00000036,-0.00000022,-0.00000035,-0.00000045,0.00000045
 ,-0.00000002|||@


      SCIENCE SANS CONSCIENCE N'EST QUE RUINE DE L'AME.

                                                  -- RABELAIS
 Job cpu time:       0 days  0 hours  0 minutes  9.0 seconds.
 Elapsed time:       0 days  0 hours  0 minutes  5.2 seconds.
 File lengths (MBytes):  RWF=      6 Int=      0 D2E=      0 Chk=      2 Scr=      1
 Normal termination of Gaussian 16 at Thu Dec 11 19:54:57 2025.
