 Entering Gaussian System, Link 0=g16.exe
 Input=nh3_preview.gjf
 Output=nh3_preview.log
 Initial command:
 D:\G16W\l1.exe ".\Gau-18560.inp" "nh3_preview.log" /scrdir=".\"
 Entering Link 1 = D:\G16W\l1.exe PID=     27624.
  
 Copyright (c) 1988,1990,1992,1993,1995,1998,2003,2009,2016,
            Gaussian, Inc.  All Rights Reserved.
  
 This is part of the Gaussian(R) 16 program.  It is based on
 the Gaussian(R) 09 system (copyright 2009, Gaussian, Inc.),
 the Gaussian(R) 03 system (copyright 2003, Gaussian, Inc.),
 the Gaussian(R) 98 system (copyright 1998, Gaussian, Inc.),
 the Gaussian(R) 94 system (copyright 1995, Gaussian, Inc.),
 the Gaussian 92(TM) system (copyright 1992, Gaussian, Inc.),
 the Gaussian 90(TM) system (copyright 1990, Gaussian, Inc.),
 the Gaussian 88(TM) system (copyright 1988, Gaussian, Inc.),
 the Gaussian 86(TM) system (copyright 1986, Carnegie Mellon
 University), and the Gaussian 82(TM) system (copyright 1983,
 Carnegie Mellon University). Gaussian is a federally registered
 trademark of Gaussian, Inc.
  
 This software contains proprietary and confidential information,
 including trade secrets, belonging to Gaussian, Inc.
  
 This software is provided under written license and may be
 used, copied, transmitted, or stored only in accord with that
 written license.
  
 The following legend is applicable only to US Government
 contracts under FAR:
  
                    RESTRICTED RIGHTS LEGEND
  
 Use, reproduction and disclosure by the US Government is
 subject to restrictions as set forth in subparagraphs (a)
 and (c) of the Commercial Computer Software - Restricted
 Rights clause in FAR 52.227-19.
  
 Gaussian, Inc.
 340 Quinnipiac St., Bldg. 40, Wallingford CT 06492
  
  
 ---------------------------------------------------------------
 Warning -- This program may not be used in any manner that
 competes with the business of Gaussian, Inc. or will provide
 assistance to any competitor of Gaussian, Inc.  The licensee
 of this program is prohibited from giving any competitor of
 Gaussian, Inc. access to this program.  By using this program,
 the user acknowledges that Gaussian, Inc. is engaged in the
 business of creating and licensing software in the field of
 computational chemistry and represents and warrants to the
 licensee that it is not a competitor of Gaussian, Inc. and that
 it will not use this program in any manner prohibited above.
 ---------------------------------------------------------------
  

 Cite this work as:
 Gaussian 16, Revision A.03,
 M. J. Frisch, G. W. Trucks, H. B. Schlegel, G. E. Scuseria, 
 M. A. Robb, J. R. Cheeseman, G. Scalmani, V. Barone, 
 G. A. Petersson, H. Nakatsuji, X. Li, M. Caricato, A. V. Marenich, 
 J. Bloino, B. G. Janesko, R. Gomperts, B. Mennucci, H. P. Hratchian, 
 J. V. Ortiz, A. F. Izmaylov, J. L. Sonnenberg, D. Williams-Young, 
 F. Ding, F. Lipparini, F. Egidi, J. Goings, B. Peng, A. Petrone, 
 T. Henderson, D. Ranasinghe, V. G. Zakrzewski, J. Gao, N. Rega, 
 G. Zheng, W. Liang, M. Hada, M. Ehara, K. Toyota, R. Fukuda, 
 J. Hasegawa, M. Ishida, T. Nakajima, Y. Honda, O. Kitao, H. Nakai, 
 T. Vreven, K. Throssell, J. A. Montgomery, Jr., J. E. Peralta, 
 F. Ogliaro, M. J. Bearpark, J. J. Heyd, E. N. Brothers, K. N. Kudin, 
 V. N. Staroverov, T. A. Keith, R. Kobayashi, J. Normand, 
 K. Raghavachari, A. P. Rendell, J. C. Burant, S. S. Iyengar, 
 J. Tomasi, M. Cossi, J. M. Millam, M. Klene, C. Adamo, R. Cammi, 
 J. W. Ochterski, R. L. Martin, K. Morokuma, O. Farkas, 
 J. B. Foresman, and D. J. Fox, Gaussian, Inc., Wallingford CT, 2016.
 
 ******************************************
 Gaussian 16:  EM64W-G16RevA.03 17-Dec-2016
                11-Dec-2025 
 ******************************************
 %nproc=2
 Will use up to    2 processors via shared memory.
 %mem=2GB
 ----------------------
 #PM7 opt(modredundant)
 ----------------------
 1/18=120,19=15,26=1,38=1/1,3;
 2/9=110,12=2,17=6,18=5,40=1/2;
 3/5=2,25=1,41=4200000,71=1/1,2,3;
 4/35=1/1;
 5/5=2,35=1,38=5/2;
 6/7=2,8=2,9=2,10=2,28=1/1;
 7//1,2,3,16;
 1/18=20,19=15,26=1/3(2);
 2/9=110/2;
 99//99;
 2/9=110/2;
 3/5=2,25=1,41=4200000,71=1,135=20/1,2,3;
 4/5=5,16=3,35=1/1;
 5/5=2,35=1,38=5/2;
 7//1,2,3,16;
 1/18=20,19=15,26=1/3(-5);
 2/9=110/2;
 6/7=2,8=2,9=2,10=2,19=2,28=1/1;
 99/9=1/99;
 Leave Link    1 at Thu Dec 11 19:44:10 2025, MaxMem=   268435456 cpu:               0.0 elap:               0.1
 (Enter D:\G16W\l101.exe)
 ----------------------------------
 title: NH3_Preview - Flexible Scan
 ----------------------------------
 Symbolic Z-matrix:
 Charge =  0 Multiplicity = 1
 N                     0.        0.        0. 
 H                     0.        0.94     -0.38 
 H                     0.81     -0.47     -0.38 
 H                    -0.81     -0.47     -0.38 
 C                     0.1       0.        3. 
 I                     0.2       0.        5.2 
 H                     0.1       1.03      2.7 
 H                     0.99     -0.51      2.7 
 H                    -0.79     -0.51      2.7 
 
 Add virtual bond connecting atoms C5         and N1         Dist= 5.67D+00.
 Add virtual bond connecting atoms H7         and N1         Dist= 5.46D+00.
 Add virtual bond connecting atoms H8         and N1         Dist= 5.52D+00.
 Add virtual bond connecting atoms H9         and N1         Dist= 5.40D+00.
 The following ModRedundant input section has been read:
 B       1       5 S  15 -0.100                                                
 
 ITRead=  0  0  0  0  0  0  0  0  0
 MicOpt= -1 -1 -1 -1 -1 -1 -1 -1 -1
 NAtoms=      9 NQM=        9 NQMF=       0 NMMI=      0 NMMIF=      0
                NMic=       0 NMicF=      0.
                    Isotopes and Nuclear Properties:
 (Nuclear quadrupole moments (NQMom) in fm**2, nuclear magnetic moments (NMagM)
  in nuclear magnetons)

  Atom         1           2           3           4           5           6           7           8           9
 IAtWgt=          14           1           1           1          12         127           1           1           1
 AtmWgt=  14.0030740   1.0078250   1.0078250   1.0078250  12.0000000 126.9004000   1.0078250   1.0078250   1.0078250
 NucSpn=           2           1           1           1           0           5           1           1           1
 AtZEff=   0.0000000   0.0000000   0.0000000   0.0000000   0.0000000   0.0000000   0.0000000   0.0000000   0.0000000
 NQMom=    2.0440000   0.0000000   0.0000000   0.0000000   0.0000000 -71.0000000   0.0000000   0.0000000   0.0000000
 NMagM=    0.4037610   2.7928460   2.7928460   2.7928460   0.0000000   2.8132800   2.7928460   2.7928460   2.7928460
 AtZNuc=   7.0000000   1.0000000   1.0000000   1.0000000   6.0000000  53.0000000   1.0000000   1.0000000   1.0000000
 Leave Link  101 at Thu Dec 11 19:44:10 2025, MaxMem=   268435456 cpu:               0.0 elap:               0.4
 (Enter D:\G16W\l103.exe)

 GradGradGradGradGradGradGradGradGradGradGradGradGradGradGradGradGradGrad
 Berny optimization.
 Initialization pass.
                           ----------------------------
                           !    Initial Parameters    !
                           ! (Angstroms and Degrees)  !
 --------------------------                            --------------------------
 ! Name  Definition              Value          Derivative Info.                !
 --------------------------------------------------------------------------------
 ! R1    R(1,2)                  1.0139         estimate D2E/DX2                !
 ! R2    R(1,3)                  1.0106         estimate D2E/DX2                !
 ! R3    R(1,4)                  1.0106         estimate D2E/DX2                !
 ! R4    R(1,5)                  3.0017         Scan                            !
 ! R5    R(1,7)                  2.8915         estimate D2E/DX2                !
 ! R6    R(1,8)                  2.9207         estimate D2E/DX2                !
 ! R7    R(1,9)                  2.8591         estimate D2E/DX2                !
 ! R8    R(5,6)                  2.2023         estimate D2E/DX2                !
 ! R9    R(5,7)                  1.0728         estimate D2E/DX2                !
 ! R10   R(5,8)                  1.0687         estimate D2E/DX2                !
 ! R11   R(5,9)                  1.0687         estimate D2E/DX2                !
 ! A1    A(2,1,3)              106.8719         estimate D2E/DX2                !
 ! A2    A(2,1,4)              106.8719         estimate D2E/DX2                !
 ! A3    A(2,1,5)              111.9984         estimate D2E/DX2                !
 ! A4    A(2,1,7)               91.1297         estimate D2E/DX2                !
 ! A5    A(2,1,8)              120.555          estimate D2E/DX2                !
 ! A6    A(2,1,9)              121.2865         estimate D2E/DX2                !
 ! A7    A(3,1,4)              106.5414         estimate D2E/DX2                !
 ! A8    A(3,1,5)              110.4316         estimate D2E/DX2                !
 ! A9    A(3,1,7)              119.277          estimate D2E/DX2                !
 ! A10   A(3,1,8)               89.6972         estimate D2E/DX2                !
 ! A11   A(3,1,9)              119.5763         estimate D2E/DX2                !
 ! A12   A(4,1,5)              113.7339         estimate D2E/DX2                !
 ! A13   A(4,1,7)              122.9884         estimate D2E/DX2                !
 ! A14   A(4,1,8)              122.5514         estimate D2E/DX2                !
 ! A15   A(4,1,9)               92.9042         estimate D2E/DX2                !
 ! A16   A(7,1,8)               35.6354         estimate D2E/DX2                !
 ! A17   A(7,1,9)               36.029          estimate D2E/DX2                !
 ! A18   A(8,1,9)               35.8543         estimate D2E/DX2                !
 ! A19   A(6,5,7)              106.2216         estimate D2E/DX2                !
 ! A20   A(6,5,8)              104.0402         estimate D2E/DX2                !
 ! A21   A(6,5,9)              108.5559         estimate D2E/DX2                !
 ! A22   A(7,5,8)              112.3128         estimate D2E/DX2                !
 ! A23   A(7,5,9)              112.3128         estimate D2E/DX2                !
 ! A24   A(8,5,9)              112.7663         estimate D2E/DX2                !
 ! A25   L(1,5,6,7,-1)         179.9921         estimate D2E/DX2                !
 ! A26   L(1,5,6,7,-2)         180.7221         estimate D2E/DX2                !
 ! D1    D(2,1,4,3)            113.9825         estimate D2E/DX2                !
 ! D2    D(2,1,5,3)           -118.982          estimate D2E/DX2                !
 ! D3    D(2,1,7,3)           -110.1119         estimate D2E/DX2                !
 ! D4    D(2,1,8,3)           -109.5067         estimate D2E/DX2                !
 ! D5    D(2,1,9,3)           -137.3397         estimate D2E/DX2                !
 ! D6    D(2,1,5,4)            121.3034         estimate D2E/DX2                !
 ! D7    D(2,1,7,4)            111.0317         estimate D2E/DX2                !
 ! D8    D(2,1,8,4)            140.9573         estimate D2E/DX2                !
 ! D9    D(2,1,9,4)            111.7702         estimate D2E/DX2                !
 ! D10   D(2,1,7,5)           -179.8            estimate D2E/DX2                !
 ! D11   D(2,1,8,5)             70.6818         estimate D2E/DX2                !
 ! D12   D(2,1,9,5)            -68.6182         estimate D2E/DX2                !
 ! D13   D(2,1,8,7)             38.3527         estimate D2E/DX2                !
 ! D14   D(2,1,9,7)            -37.2222         estimate D2E/DX2                !
 ! D15   D(2,1,9,8)           -100.0621         estimate D2E/DX2                !
 ! D16   D(3,1,5,4)           -119.7146         estimate D2E/DX2                !
 ! D17   D(3,1,7,4)           -138.8564         estimate D2E/DX2                !
 ! D18   D(3,1,8,4)           -109.536          estimate D2E/DX2                !
 ! D19   D(3,1,9,4)           -110.8901         estimate D2E/DX2                !
 ! D20   D(3,1,7,5)            -69.6881         estimate D2E/DX2                !
 ! D21   D(3,1,8,5)           -179.8115         estimate D2E/DX2                !
 ! D22   D(3,1,9,5)             68.7216         estimate D2E/DX2                !
 ! D23   D(3,1,8,7)            147.8594         estimate D2E/DX2                !
 ! D24   D(3,1,9,7)            100.1175         estimate D2E/DX2                !
 ! D25   D(3,1,9,8)             37.2776         estimate D2E/DX2                !
 ! D26   D(4,1,7,5)             69.1683         estimate D2E/DX2                !
 ! D27   D(4,1,8,5)            -70.2755         estimate D2E/DX2                !
 ! D28   D(4,1,9,5)            179.6116         estimate D2E/DX2                !
 ! D29   D(4,1,8,7)           -102.6046         estimate D2E/DX2                !
 ! D30   D(4,1,9,7)           -148.9924         estimate D2E/DX2                !
 ! D31   D(4,1,9,8)            148.1677         estimate D2E/DX2                !
 ! D32   D(7,1,9,8)            -62.8399         estimate D2E/DX2                !
 ! D33   D(6,5,8,7)           -114.4494         estimate D2E/DX2                !
 ! D34   D(6,5,9,7)            117.1475         estimate D2E/DX2                !
 ! D35   D(6,5,9,8)           -114.7337         estimate D2E/DX2                !
 ! D36   D(7,5,9,8)            128.1188         estimate D2E/DX2                !
 --------------------------------------------------------------------------------
 Trust Radius=3.00D-01 FncErr=1.00D-07 GrdErr=1.00D-07 EigMax=2.50D+02 EigMin=1.00D-04
 Number of optimizations in scan=  16
 Number of steps in this run=     83 maximum allowed number of steps=    100.
 GradGradGradGradGradGradGradGradGradGradGradGradGradGradGradGradGradGrad

 Leave Link  103 at Thu Dec 11 19:44:10 2025, MaxMem=   268435456 cpu:               0.0 elap:               0.0
 (Enter D:\G16W\l202.exe)
                          Input orientation:                          
 ---------------------------------------------------------------------
 Center     Atomic      Atomic             Coordinates (Angstroms)
 Number     Number       Type             X           Y           Z
 ---------------------------------------------------------------------
      1          7           0        0.000000    0.000000    0.000000
      2          1           0        0.000000    0.940000   -0.380000
      3          1           0        0.810000   -0.470000   -0.380000
      4          1           0       -0.810000   -0.470000   -0.380000
      5          6           0        0.100000    0.000000    3.000000
      6         53           0        0.200000    0.000000    5.200000
      7          1           0        0.100000    1.030000    2.700000
      8          1           0        0.990000   -0.510000    2.700000
      9          1           0       -0.790000   -0.510000    2.700000
 ---------------------------------------------------------------------
                    Distance matrix (angstroms):
                    1          2          3          4          5
     1  N    0.000000
     2  H    1.013903   0.000000
     3  H    1.010643   1.626100   0.000000
     4  H    1.010643   1.626100   1.620000   0.000000
     5  C    3.001666   3.509701   3.485599   3.531770   0.000000
     6  I    5.203845   5.662155   5.632886   5.690114   2.202272
     7  H    2.891522   3.082937   3.498643   3.544644   1.072800
     8  H    2.920651   3.545279   3.085515   3.567632   1.068738
     9  H    2.859056   3.494710   3.471023   3.080325   1.068738
                    6          7          8          9
     6  I    0.000000
     7  H    2.705716   0.000000
     8  H    2.670992   1.778679   0.000000
     9  H    2.736823   1.778679   1.780000   0.000000
 Stoichiometry    CH6IN
 Framework group  C1[X(CH6IN)]
 Deg. of freedom    21
 Full point group                 C1      NOp   1
 Largest Abelian subgroup         C1      NOp   1
 Largest concise Abelian subgroup C1      NOp   1
                         Standard orientation:                         
 ---------------------------------------------------------------------
 Center     Atomic      Atomic             Coordinates (Angstroms)
 Number     Number       Type             X           Y           Z
 ---------------------------------------------------------------------
      1          7           0        4.177499   -0.000387    0.001445
      2          1           0        4.557271    0.939556    0.018236
      3          1           0        4.525939   -0.472273    0.824435
      4          1           0        4.588438   -0.468608   -0.794354
      5          6           0        1.175874   -0.000175   -0.014368
      6         53           0       -1.026346   -0.000080    0.000682
      7          1           0        1.475711    1.029778   -0.000460
      8          1           0        1.441285   -0.512231    0.885385
      9          1           0        1.509957   -0.508204   -0.893285
 ---------------------------------------------------------------------
 Rotational constants (GHZ):          86.4294455           1.1054357           1.1054087
 Leave Link  202 at Thu Dec 11 19:44:11 2025, MaxMem=   268435456 cpu:               0.0 elap:               0.0
 (Enter D:\G16W\l301.exe)
 Standard basis: VSTO-6G (5D, 7F)
 Ernie: Thresh=  0.10000D-02 Tol=  0.10000D-05 Strict=F.
 EHB=         0.000000000 Number of Hydrogen Bonds=     0
  NNHCO=     0 NNPyr=     0 NCTC=     0               EPep=         0.000000000
    EC=        34.574473666  ECS=         1.320876786   EG=         0.203771053
   EHC=         0.000506092  EAt=       -21.558449737  AtH=         0.991250372
 EPDDG=         0.000000000  ECC=        36.099627596 EAtT=        22.549700110
  EHyb=         0.000000000
 There are    24 symmetry adapted cartesian basis functions of A   symmetry.
 There are    23 symmetry adapted basis functions of A   symmetry.
    23 basis functions,   144 primitive gaussians,    24 cartesian basis functions
    11 alpha electrons       11 beta electrons
       nuclear repulsion energy        58.6493277055 Hartrees.
 IExCor=    0 DFT=F Ex=HF Corr=None ExCW=0 ScaHFX=  1.000000
 ScaDFX=  1.000000  1.000000  1.000000  1.000000 ScalE2=  1.000000  1.000000
 IRadAn=      5 IRanWt=     -1 IRanGd=            0 ICorTp=0 IEmpDi=251
 Integral buffers will be    131072 words long.
 Regular integral format.
 Two-electron integral symmetry is turned off.
 R6Disp:  PM7 Dispersion energy=       -0.0007351185 Hartrees.
 Nuclear repulsion after empirical dispersion term =       58.6485925870 Hartrees.
 Leave Link  301 at Thu Dec 11 19:44:11 2025, MaxMem=   268435456 cpu:               0.0 elap:               0.1
 (Enter D:\G16W\l302.exe)
 Do NDO integrals.
 NPDir=0 NMtPBC=     1 NCelOv=     1 NCel=       1 NClECP=     1 NCelD=      1
         NCelK=      1 NCelE2=     1 NClLst=     1 CellRange=     0.0.
 One-electron integrals computed using PRISM.
 NBasis=    23 RedAO= F EigKep=  0.00D+00  NBF=    23
 NBsUse=    23 1.00D-04 EigRej=  0.00D+00 NBFU=    23
 Leave Link  302 at Thu Dec 11 19:44:11 2025, MaxMem=   268435456 cpu:               0.0 elap:               0.3
 (Enter D:\G16W\l303.exe)
 DipDrv:  MaxL=1.
 Leave Link  303 at Thu Dec 11 19:44:11 2025, MaxMem=   268435456 cpu:               0.0 elap:               0.1
 (Enter D:\G16W\l401.exe)
 Nonelectrostatic core Hamiltonian diagonalized for initial guess.
 JPrj=0 DoOrth=F DoCkMO=F.
 Leave Link  401 at Thu Dec 11 19:44:12 2025, MaxMem=   268435456 cpu:               0.0 elap:               0.1
 (Enter D:\G16W\l502.exe)
 Keep J ints in memory in canonical form, NReq=1849470.
 FoFCou: FMM=F IPFlag=           0 FMFlag=           0 FMFlg1=           0
         NFxFlg=           0 DoJE=F BraDBF=F KetDBF=F FulRan=T
         wScrn=  0.000000 ICntrl=       600 IOpCl=  2 I1Cent=           0 NGrid=           0
         NMat0=    1 NMatS0=     71 NMatT0=    0 NMatD0=    1 NMtDS0=    0 NMtDT0=    0
 Symmetry not used in FoFCou.
 Two-electron integral symmetry not used.
 Closed shell SCF:
 Using DIIS extrapolation, IDIIS=  1040.
 Overlap will be assumed to be unity.
 NGot=   268435456 LenX=   268372103 LenY=   268371086
 Requested convergence on RMS density matrix=1.00D-08 within 128 cycles.
 Requested convergence on MAX density matrix=1.00D-06.
 Requested convergence on             energy=1.00D-06.
 No special actions if energy rises.

 Cycle   1  Pass 1  IDiag  1:
 E= 0.272501056306737    
 DIIS: error= 3.68D-02 at cycle   1 NSaved=   1.
 NSaved= 1 IEnMin= 1 EnMin= 0.272501056306737     IErMin= 1 ErrMin= 3.68D-02
 ErrMax= 3.68D-02  0.00D+00 EMaxC= 1.00D-01 BMatC= 6.17D-02 BMatP= 6.17D-02
 IDIUse=3 WtCom= 6.32D-01 WtEn= 3.68D-01
 Coeff-Com:  0.100D+01
 Coeff-En:   0.100D+01
 Coeff:      0.100D+01
 GapD=    2.000 DampG=2.000 DampE=0.500 DampFc=1.0000 IDamp=-1.
 RMSDP=1.98D-02 MaxDP=1.21D-01              OVMax= 0.00D+00

 Cycle   2  Pass 1  IDiag  1:
 E= 0.590092564438436E-01 Delta-E=       -0.213491799863 Rises=F Damp=F
 DIIS: error= 2.00D-02 at cycle   2 NSaved=   2.
 NSaved= 2 IEnMin= 2 EnMin= 0.590092564438436E-01 IErMin= 2 ErrMin= 2.00D-02
 ErrMax= 2.00D-02  0.00D+00 EMaxC= 1.00D-01 BMatC= 1.18D-02 BMatP= 6.17D-02
 IDIUse=3 WtCom= 8.00D-01 WtEn= 2.00D-01
 Coeff-Com: -0.453D+00 0.145D+01
 Coeff-En:   0.000D+00 0.100D+01
 Coeff:     -0.362D+00 0.136D+01
 RMSDP=1.22D-02 MaxDP=9.05D-02 DE=-2.13D-01 OVMax= 0.00D+00

 Cycle   3  Pass 1  IDiag  1:
 E= 0.470212739175935E-02 Delta-E=       -0.054307129052 Rises=F Damp=F
 DIIS: error= 7.50D-03 at cycle   3 NSaved=   3.
 NSaved= 3 IEnMin= 3 EnMin= 0.470212739175935E-02 IErMin= 3 ErrMin= 7.50D-03
 ErrMax= 7.50D-03  0.00D+00 EMaxC= 1.00D-01 BMatC= 1.18D-03 BMatP= 1.18D-02
 IDIUse=3 WtCom= 9.25D-01 WtEn= 7.50D-02
 Coeff-Com: -0.292D-01-0.309D+00 0.134D+01
 Coeff-En:   0.000D+00 0.000D+00 0.100D+01
 Coeff:     -0.270D-01-0.286D+00 0.131D+01
 RMSDP=4.88D-03 MaxDP=4.12D-02 DE=-5.43D-02 OVMax= 0.00D+00

 Cycle   4  Pass 1  IDiag  3:
 E=-0.136468638431353E-02 Delta-E=       -0.006066813776 Rises=F Damp=F
 DIIS: error= 1.64D-03 at cycle   4 NSaved=   4.
 NSaved= 4 IEnMin= 4 EnMin=-0.136468638431353E-02 IErMin= 4 ErrMin= 1.64D-03
 ErrMax= 1.64D-03  0.00D+00 EMaxC= 1.00D-01 BMatC= 5.38D-05 BMatP= 1.18D-03
 IDIUse=3 WtCom= 9.84D-01 WtEn= 1.64D-02
 Coeff-Com:  0.330D-01 0.311D-01-0.475D+00 0.141D+01
 Coeff-En:   0.000D+00 0.000D+00 0.000D+00 0.100D+01
 Coeff:      0.325D-01 0.306D-01-0.467D+00 0.140D+01
 Gap=     0.350 Goal=   None    Shift=    0.000
 RMSDP=9.49D-04 MaxDP=9.19D-03 DE=-6.07D-03 OVMax= 7.90D-03

 Cycle   5  Pass 1  IDiag  3:
 E=-0.162486682764040E-02 Delta-E=       -0.000260180443 Rises=F Damp=F
 DIIS: error= 3.52D-04 at cycle   5 NSaved=   5.
 NSaved= 5 IEnMin= 5 EnMin=-0.162486682764040E-02 IErMin= 5 ErrMin= 3.52D-04
 ErrMax= 3.52D-04  0.00D+00 EMaxC= 1.00D-01 BMatC= 3.15D-06 BMatP= 5.38D-05
 IDIUse=3 WtCom= 9.96D-01 WtEn= 3.52D-03
 Coeff-Com: -0.466D-02 0.191D-01-0.127D-01-0.284D+00 0.128D+01
 Coeff-En:   0.000D+00 0.000D+00 0.000D+00 0.000D+00 0.100D+01
 Coeff:     -0.464D-02 0.190D-01-0.127D-01-0.283D+00 0.128D+01
 Gap=     0.350 Goal=   None    Shift=    0.000
 RMSDP=2.47D-04 MaxDP=2.14D-03 DE=-2.60D-04 OVMax= 1.83D-03

 Cycle   6  Pass 1  IDiag  3:
 E=-0.164079943561291E-02 Delta-E=       -0.000015932608 Rises=F Damp=F
 DIIS: error= 7.96D-05 at cycle   6 NSaved=   6.
 NSaved= 6 IEnMin= 6 EnMin=-0.164079943561291E-02 IErMin= 6 ErrMin= 7.96D-05
 ErrMax= 7.96D-05  0.00D+00 EMaxC= 1.00D-01 BMatC= 1.64D-07 BMatP= 3.15D-06
 IDIUse=1 WtCom= 1.00D+00 WtEn= 0.00D+00
 Coeff-Com: -0.807D-04-0.947D-02 0.401D-01-0.574D-01-0.210D+00 0.124D+01
 Coeff:     -0.807D-04-0.947D-02 0.401D-01-0.574D-01-0.210D+00 0.124D+01
 Gap=     0.350 Goal=   None    Shift=    0.000
 RMSDP=5.83D-05 MaxDP=5.45D-04 DE=-1.59D-05 OVMax= 4.54D-04

 Cycle   7  Pass 1  IDiag  3:
 E=-0.164151093712661E-02 Delta-E=       -0.000000711502 Rises=F Damp=F
 DIIS: error= 1.63D-05 at cycle   7 NSaved=   7.
 NSaved= 7 IEnMin= 7 EnMin=-0.164151093712661E-02 IErMin= 7 ErrMin= 1.63D-05
 ErrMax= 1.63D-05  0.00D+00 EMaxC= 1.00D-01 BMatC= 6.91D-09 BMatP= 1.64D-07
 IDIUse=1 WtCom= 1.00D+00 WtEn= 0.00D+00
 Coeff-Com: -0.105D-03 0.260D-02-0.954D-02 0.584D-02 0.113D+00-0.553D+00
 Coeff-Com:  0.144D+01
 Coeff:     -0.105D-03 0.260D-02-0.954D-02 0.584D-02 0.113D+00-0.553D+00
 Coeff:      0.144D+01
 Gap=     0.350 Goal=   None    Shift=    0.000
 RMSDP=1.06D-05 MaxDP=1.21D-04 DE=-7.12D-07 OVMax= 1.02D-04

 Cycle   8  Pass 1  IDiag  3:
 E=-0.164153630220198E-02 Delta-E=       -0.000000025365 Rises=F Damp=F
 DIIS: error= 3.11D-06 at cycle   8 NSaved=   8.
 NSaved= 8 IEnMin= 8 EnMin=-0.164153630220198E-02 IErMin= 8 ErrMin= 3.11D-06
 ErrMax= 3.11D-06  0.00D+00 EMaxC= 1.00D-01 BMatC= 1.82D-10 BMatP= 6.91D-09
 IDIUse=1 WtCom= 1.00D+00 WtEn= 0.00D+00
 Coeff-Com:  0.473D-04-0.435D-03 0.124D-02 0.675D-03-0.258D-01 0.110D+00
 Coeff-Com: -0.418D+00 0.133D+01
 Coeff:      0.473D-04-0.435D-03 0.124D-02 0.675D-03-0.258D-01 0.110D+00
 Coeff:     -0.418D+00 0.133D+01
 Gap=     0.350 Goal=   None    Shift=    0.000
 RMSDP=2.38D-06 MaxDP=2.59D-05 DE=-2.54D-08 OVMax= 2.26D-05

 Cycle   9  Pass 1  IDiag  3:
 E=-0.164153733078365E-02 Delta-E=       -0.000000001029 Rises=F Damp=F
 DIIS: error= 4.17D-07 at cycle   9 NSaved=   9.
 NSaved= 9 IEnMin= 9 EnMin=-0.164153733078365E-02 IErMin= 9 ErrMin= 4.17D-07
 ErrMax= 4.17D-07  0.00D+00 EMaxC= 1.00D-01 BMatC= 7.07D-12 BMatP= 1.82D-10
 IDIUse=1 WtCom= 1.00D+00 WtEn= 0.00D+00
 Coeff-Com: -0.172D-04 0.906D-04-0.171D-03-0.463D-03 0.592D-02-0.214D-01
 Coeff-Com:  0.963D-01-0.437D+00 0.136D+01
 Coeff:     -0.172D-04 0.906D-04-0.171D-03-0.463D-03 0.592D-02-0.214D-01
 Coeff:      0.963D-01-0.437D+00 0.136D+01
 Gap=     0.350 Goal=   None    Shift=    0.000
 RMSDP=4.67D-07 MaxDP=3.50D-06 DE=-1.03D-09 OVMax= 6.04D-06

 Cycle  10  Pass 1  IDiag  3:
 E=-0.164153737492256E-02 Delta-E=       -0.000000000044 Rises=F Damp=F
 DIIS: error= 1.59D-07 at cycle  10 NSaved=  10.
 NSaved=10 IEnMin=10 EnMin=-0.164153737492256E-02 IErMin=10 ErrMin= 1.59D-07
 ErrMax= 1.59D-07  0.00D+00 EMaxC= 1.00D-01 BMatC= 4.95D-13 BMatP= 7.07D-12
 IDIUse=1 WtCom= 1.00D+00 WtEn= 0.00D+00
 Coeff-Com:  0.442D-05-0.204D-04 0.314D-04 0.120D-03-0.127D-02 0.414D-02
 Coeff-Com: -0.204D-01 0.107D+00-0.503D+00 0.141D+01
 Coeff:      0.442D-05-0.204D-04 0.314D-04 0.120D-03-0.127D-02 0.414D-02
 Coeff:     -0.204D-01 0.107D+00-0.503D+00 0.141D+01
 Gap=     0.350 Goal=   None    Shift=    0.000
 RMSDP=1.67D-07 MaxDP=1.44D-06 DE=-4.41D-11 OVMax= 2.57D-06

 Cycle  11  Pass 1  IDiag  3:
 E=-0.164153737910766E-02 Delta-E=       -0.000000000004 Rises=F Damp=F
 DIIS: error= 5.55D-08 at cycle  11 NSaved=  11.
 NSaved=11 IEnMin=11 EnMin=-0.164153737910766E-02 IErMin=11 ErrMin= 5.55D-08
 ErrMax= 5.55D-08  0.00D+00 EMaxC= 1.00D-01 BMatC= 6.36D-14 BMatP= 4.95D-13
 IDIUse=1 WtCom= 1.00D+00 WtEn= 0.00D+00
 Coeff-Com: -0.331D-06 0.221D-06 0.343D-05-0.751D-05-0.172D-04 0.327D-03
 Coeff-Com:  0.340D-03-0.140D-01 0.151D+00-0.844D+00 0.171D+01
 Coeff:     -0.331D-06 0.221D-06 0.343D-05-0.751D-05-0.172D-04 0.327D-03
 Coeff:      0.340D-03-0.140D-01 0.151D+00-0.844D+00 0.171D+01
 Gap=     0.350 Goal=   None    Shift=    0.000
 RMSDP=7.96D-08 MaxDP=6.96D-07 DE=-4.19D-12 OVMax= 1.25D-06

 Cycle  12  Pass 1  IDiag  3:
 E=-0.164153737993189E-02 Delta-E=       -0.000000000001 Rises=F Damp=F
 DIIS: error= 5.97D-09 at cycle  12 NSaved=  12.
 NSaved=12 IEnMin=12 EnMin=-0.164153737993189E-02 IErMin=12 ErrMin= 5.97D-09
 ErrMax= 5.97D-09  0.00D+00 EMaxC= 1.00D-01 BMatC= 1.57D-15 BMatP= 6.36D-14
 IDIUse=1 WtCom= 1.00D+00 WtEn= 0.00D+00
 Coeff-Com: -0.103D-06 0.911D-06-0.254D-05-0.161D-05 0.512D-04-0.205D-03
 Coeff-Com:  0.758D-03-0.242D-02 0.524D-02 0.460D-01-0.250D+00 0.120D+01
 Coeff:     -0.103D-06 0.911D-06-0.254D-05-0.161D-05 0.512D-04-0.205D-03
 Coeff:      0.758D-03-0.242D-02 0.524D-02 0.460D-01-0.250D+00 0.120D+01
 Gap=     0.350 Goal=   None    Shift=    0.000
 RMSDP=8.99D-09 MaxDP=7.11D-08 DE=-8.24D-13 OVMax= 1.26D-07

 Cycle  13  Pass 2  IDiag  1:
 SCF Done:  E(RPM7) = -0.164153737993E-02 A.U. after   13 cycles
            NFock= 12  Conv=0.90D-08     -V/T= 1.0000
 KE=-3.632007289563D+01 PE=-6.743525882368D+01 EE= 4.510509759494D+01
 Leave Link  502 at Thu Dec 11 19:44:12 2025, MaxMem=   268435456 cpu:               0.0 elap:               0.6
 (Enter D:\G16W\l601.exe)
 Copying SCF densities to generalized density rwf, IOpCl= 0 IROHF=0.

 **********************************************************************

            Population analysis using the SCF density.

 **********************************************************************

 Orbital symmetries:
       Occupied  (A) (A) (A) (A) (A) (A) (A) (A) (A) (A) (A)
       Virtual   (A) (A) (A) (A) (A) (A) (A) (A) (A) (A) (A) (A)
 The electronic state is 1-A.
 Alpha  occ. eigenvalues --   -1.31764  -0.95296  -0.77085  -0.59984  -0.59945
 Alpha  occ. eigenvalues --   -0.53796  -0.53649  -0.41373  -0.39271  -0.32558
 Alpha  occ. eigenvalues --   -0.32535
 Alpha virt. eigenvalues --    0.02456   0.15713   0.20597   0.20733   0.23357
 Alpha virt. eigenvalues --    0.23380   0.23781   4.56098   4.56103   4.56521
 Alpha virt. eigenvalues --    4.56521   4.56924
          Condensed to atoms (all electrons):
               1          2          3          4          5          6
     1  N    5.704927   0.000000   0.000000   0.000000   0.000000   0.000000
     2  H    0.000000   0.764205   0.000000   0.000000   0.000000   0.000000
     3  H    0.000000   0.000000   0.765212   0.000000   0.000000   0.000000
     4  H    0.000000   0.000000   0.000000   0.764997   0.000000   0.000000
     5  C    0.000000   0.000000   0.000000   0.000000   4.372253   0.000000
     6  I    0.000000   0.000000   0.000000   0.000000   0.000000   7.116489
     7  H    0.000000   0.000000   0.000000   0.000000   0.000000   0.000000
     8  H    0.000000   0.000000   0.000000   0.000000   0.000000   0.000000
     9  H    0.000000   0.000000   0.000000   0.000000   0.000000   0.000000
               7          8          9
     1  N    0.000000   0.000000   0.000000
     2  H    0.000000   0.000000   0.000000
     3  H    0.000000   0.000000   0.000000
     4  H    0.000000   0.000000   0.000000
     5  C    0.000000   0.000000   0.000000
     6  I    0.000000   0.000000   0.000000
     7  H    0.837107   0.000000   0.000000
     8  H    0.000000   0.839572   0.000000
     9  H    0.000000   0.000000   0.835237
 Mulliken charges:
               1
     1  N   -0.704927
     2  H    0.235795
     3  H    0.234788
     4  H    0.235003
     5  C   -0.372253
     6  I   -0.116489
     7  H    0.162893
     8  H    0.160428
     9  H    0.164763
 Sum of Mulliken charges =   0.00000
 Mulliken charges with hydrogens summed into heavy atoms:
               1
     1  N    0.000659
     5  C    0.115831
     6  I   -0.116489
 Charge=              0.0000 electrons
 Dipole moment (field-independent basis, Debye):
    X=              5.0672    Y=              0.0094    Z=              0.0968  Tot=              5.0681
 N-N= 5.864859258699D+01 E-N=-6.743525873608D+01  KE=-3.632007289563D+01
 Leave Link  601 at Thu Dec 11 19:44:13 2025, MaxMem=   268435456 cpu:               1.0 elap:               0.1
 (Enter D:\G16W\l701.exe)
 ... and contract with generalized density number  0.
 Compute integral first derivatives.
 R6Disp: Adding PM7 dispersion energy 1st derivatives to the gradient.
 Leave Link  701 at Thu Dec 11 19:44:13 2025, MaxMem=   268435456 cpu:               0.0 elap:               0.3
 (Enter D:\G16W\l702.exe)
 L702 exits ... SP integral derivatives will be done elsewhere.
 Leave Link  702 at Thu Dec 11 19:44:13 2025, MaxMem=   268435456 cpu:               0.0 elap:               0.1
 (Enter D:\G16W\l703.exe)
 Integral derivatives from FoFJK, PRISM(SPDF).
 Compute integral first derivatives, UseDBF=F ICtDFT=           0.
 Calling FoFJK, ICntrl=      2127 FMM=F ISym2X=0 I1Cent= 0 IOpClX= 0 NMat=1 NMatS=1 NMatT=0.
 FoFJK:  IHMeth=43 ICntrl=    2127 DoSepK=F KAlg= 0 I1Cent=           0 FoldK=F
 IRaf=         0 NMat=       1 IRICut=       1 DoRegI=T DoRafI=F ISym2E= 0 IDoP0=3 IntGTp=3.
 FoFCou: FMM=F IPFlag=           0 FMFlag=      100000 FMFlg1=         800
         NFxFlg=           0 DoJE=F BraDBF=F KetDBF=F FulRan=T
         wScrn=  0.000000 ICntrl=      2127 IOpCl=  0 I1Cent=           0 NGrid=           0
         NMat0=    1 NMatS0=      1 NMatT0=    0 NMatD0=    1 NMtDS0=    0 NMtDT0=    0
 Symmetry not used in FoFCou.
 Leave Link  703 at Thu Dec 11 19:44:13 2025, MaxMem=   268435456 cpu:               0.0 elap:               0.1
 (Enter D:\G16W\l716.exe)
 Dipole        = 1.99357902D+00 3.69282670D-03 3.80657133D-02
 ***** Axes restored to original set *****
 -------------------------------------------------------------------
 Center     Atomic                   Forces (Hartrees/Bohr)
 Number     Number              X              Y              Z
 -------------------------------------------------------------------
      1        7           0.000028873    0.000981683   -0.015567823
      2        1          -0.000014783   -0.004576317    0.005371358
      3        1          -0.002228572    0.001800732    0.004975895
      4        1           0.002201708    0.001802230    0.005002836
      5        6           0.004185058    0.002140598    0.032696686
      6       53          -0.003126523   -0.000003725   -0.012833218
      7        1          -0.000675197    0.006678893   -0.006102689
      8        1           0.006908722   -0.004695933   -0.009708099
      9        1          -0.007279288   -0.004128160   -0.003834947
 -------------------------------------------------------------------
 Cartesian Forces:  Max     0.032696686 RMS     0.008511251
 Leave Link  716 at Thu Dec 11 19:44:14 2025, MaxMem=   268435456 cpu:               1.0 elap:               0.1
 (Enter D:\G16W\l103.exe)

 GradGradGradGradGradGradGradGradGradGradGradGradGradGradGradGradGradGrad
 Berny optimization.
 FormGI is forming the generalized inverse of G from B-inverse, IUseBI=4.
 Internal  Forces:  Max     0.012961949 RMS     0.002765222
 Search for a local minimum.
 Step number   1 out of a maximum of   83 on scan point     1 out of    16
 All quantities printed in internal units (Hartrees-Bohrs-Radians)
 RMS Force = .27602D-02 SwitMx=.10000D-02 MixMth= 1
 Mixed Optimization -- RFO/linear search
 Second derivative matrix not updated -- first step.
 ITU=  0
     Eigenvalues ---    0.00810   0.01124   0.01156   0.01730   0.01788
     Eigenvalues ---    0.03438   0.04404   0.05298   0.07153   0.08778
     Eigenvalues ---    0.09517   0.11008   0.13050   0.13464   0.28687
     Eigenvalues ---    0.30783   0.32458   0.45325   0.45865   0.45865
     Eigenvalues --- 1000.000001000.000001000.000001000.000001000.00000
     Eigenvalues --- 1000.000001000.000001000.000001000.000001000.00000
     Eigenvalues --- 1000.000001000.000001000.000001000.000001000.00000
     Eigenvalues --- 1000.000001000.000001000.000001000.000001000.00000
     Eigenvalues --- 1000.000001000.000001000.000001000.000001000.00000
     Eigenvalues --- 1000.000001000.000001000.000001000.000001000.00000
     Eigenvalues --- 1000.000001000.000001000.000001000.000001000.00000
     Eigenvalues --- 1000.000001000.000001000.000001000.000001000.00000
     Eigenvalues --- 1000.000001000.000001000.000001000.000001000.00000
     Eigenvalues --- 1000.000001000.000001000.000001000.000001000.00000
     Eigenvalues --- 1000.000001000.000001000.00000
 RFO step:  Lambda=-3.41207960D-03 EMin= 8.09524231D-03
 Linear search not attempted -- first point.
 Iteration  1 RMS(Cart)=  0.02068049 RMS(Int)=  0.00041448
 Iteration  2 RMS(Cart)=  0.00043345 RMS(Int)=  0.00019224
 Iteration  3 RMS(Cart)=  0.00000023 RMS(Int)=  0.00019224
 Iteration  1 RMS(Cart)=  0.00002723 RMS(Int)=  0.00004209
 Iteration  2 RMS(Cart)=  0.00001651 RMS(Int)=  0.00004685
 Iteration  3 RMS(Cart)=  0.00001001 RMS(Int)=  0.00005351
 Iteration  4 RMS(Cart)=  0.00000607 RMS(Int)=  0.00005848
 Iteration  5 RMS(Cart)=  0.00000368 RMS(Int)=  0.00006175
 Iteration  6 RMS(Cart)=  0.00000223 RMS(Int)=  0.00006381
 Iteration  7 RMS(Cart)=  0.00000135 RMS(Int)=  0.00006508
 Iteration  8 RMS(Cart)=  0.00000082 RMS(Int)=  0.00006586
 ITry= 1 IFail=0 DXMaxC= 9.10D-02 DCOld= 1.00D+10 DXMaxT= 3.00D-01 DXLimC= 3.00D+00 Rises=F
 Variable       Old X    -DE/DX   Delta X   Delta X   Delta X     New X
                                 (Linear)    (Quad)   (Total)
    R1        1.91600  -0.00626   0.00000  -0.01370  -0.01370   1.90230
    R2        1.90984  -0.00449   0.00000  -0.00973  -0.00973   1.90011
    R3        1.90984  -0.00448   0.00000  -0.00970  -0.00970   1.90014
    R4        5.67233   0.00193   0.00000   0.00000   0.00001   5.67234
    R5        5.46418   0.00011   0.00000  -0.04012  -0.04052   5.42366
    R6        5.51923  -0.00071   0.00000  -0.04044  -0.04100   5.47823
    R7        5.40283   0.00038   0.00000  -0.03997  -0.04033   5.36251
    R8        4.16169  -0.01296   0.00000  -0.11421  -0.11421   4.04748
    R9        2.02730   0.00664   0.00000   0.02016   0.02026   2.04756
   R10        2.01962   0.00900   0.00000   0.02666   0.02679   2.04641
   R11        2.01962   0.00810   0.00000   0.02258   0.02261   2.04223
    A1        1.86527   0.00095   0.00000   0.00685   0.00677   1.87203
    A2        1.86527   0.00131   0.00000   0.00683   0.00674   1.87200
    A3        1.95474  -0.00117   0.00000  -0.00791  -0.00789   1.94685
    A4        1.59051  -0.00229   0.00000  -0.01220  -0.01216   1.57835
    A5        2.10408  -0.00048   0.00000  -0.00456  -0.00457   2.09951
    A6        2.11685  -0.00047   0.00000  -0.00563  -0.00563   2.11122
    A7        1.85950   0.00144   0.00000   0.01142   0.01136   1.87085
    A8        1.92739  -0.00097   0.00000  -0.00747  -0.00745   1.91995
    A9        2.08178  -0.00053   0.00000  -0.00543  -0.00543   2.07635
   A10        1.56551  -0.00253   0.00000  -0.01312  -0.01308   1.55243
   A11        2.08700  -0.00045   0.00000  -0.00493  -0.00490   2.08210
   A12        1.98503  -0.00126   0.00000  -0.00762  -0.00760   1.97743
   A13        2.14655  -0.00087   0.00000  -0.00701  -0.00699   2.13957
   A14        2.13893  -0.00071   0.00000  -0.00526  -0.00520   2.13372
   A15        1.62148  -0.00265   0.00000  -0.01219  -0.01213   1.60936
   A16        0.62195   0.00236   0.00000   0.00926   0.00921   0.63116
   A17        0.62883   0.00217   0.00000   0.00730   0.00725   0.63608
   A18        0.62577   0.00240   0.00000   0.00811   0.00809   0.63386
   A19        1.85392   0.00113   0.00000   0.02069   0.02047   1.87439
   A20        1.81584   0.00397   0.00000   0.05610   0.05594   1.87179
   A21        1.89466  -0.00130   0.00000  -0.01339  -0.01348   1.88118
   A22        1.96023  -0.00076   0.00000  -0.01342  -0.01421   1.94602
   A23        1.96023  -0.00078   0.00000  -0.02001  -0.02043   1.93980
   A24        1.96814  -0.00172   0.00000  -0.02114  -0.02149   1.94666
   A25        3.14145   0.00003   0.00000   0.00003  -0.00020   3.14126
   A26        3.15420  -0.00266   0.00000  -0.04094  -0.04114   3.11305
    D1        1.98937   0.00236   0.00000   0.01626   0.01635   2.00572
    D2       -2.07663   0.00021   0.00000   0.00151   0.00149  -2.07513
    D3       -1.92182   0.00039   0.00000   0.00060   0.00057  -1.92124
    D4       -1.91125   0.00056   0.00000   0.00105   0.00102  -1.91023
    D5       -2.39703  -0.00042   0.00000   0.00288   0.00293  -2.39410
    D6        2.11714  -0.00009   0.00000  -0.00264  -0.00264   2.11451
    D7        1.93787  -0.00024   0.00000  -0.00212  -0.00207   1.93579
    D8        2.46017   0.00069   0.00000  -0.00272  -0.00277   2.45739
    D9        1.95076  -0.00034   0.00000  -0.00165  -0.00162   1.94914
   D10       -3.13810   0.00017   0.00000   0.00158   0.00151  -3.13659
   D11        1.23363   0.00010   0.00000  -0.00301  -0.00293   1.23070
   D12       -1.19761   0.00006   0.00000   0.00101   0.00102  -1.19660
   D13        0.66938   0.00048   0.00000  -0.00038  -0.00041   0.66897
   D14       -0.64965  -0.00003   0.00000   0.00228   0.00227  -0.64738
   D15       -1.74641  -0.00066   0.00000  -0.00235  -0.00229  -1.74870
   D16       -2.08941  -0.00031   0.00000  -0.00414  -0.00413  -2.09354
   D17       -2.42350  -0.00063   0.00000  -0.00272  -0.00265  -2.42615
   D18       -1.91176   0.00012   0.00000  -0.00376  -0.00380  -1.91556
   D19       -1.93540   0.00008   0.00000  -0.00452  -0.00455  -1.93994
   D20       -1.21629  -0.00022   0.00000   0.00098   0.00094  -1.21535
   D21       -3.13830  -0.00047   0.00000  -0.00405  -0.00396   3.14093
   D22        1.19942   0.00048   0.00000  -0.00186  -0.00191   1.19750
   D23        2.58063  -0.00008   0.00000  -0.00143  -0.00143   2.57920
   D24        1.74738   0.00039   0.00000  -0.00060  -0.00066   1.74672
   D25        0.65062  -0.00024   0.00000  -0.00522  -0.00522   0.64540
   D26        1.20721   0.00041   0.00000   0.00370   0.00359   1.21080
   D27       -1.22654  -0.00059   0.00000  -0.00029  -0.00016  -1.22670
   D28        3.13481   0.00041   0.00000   0.00266   0.00263   3.13745
   D29       -1.79079  -0.00020   0.00000   0.00234   0.00236  -1.78842
   D30       -2.60041   0.00031   0.00000   0.00392   0.00389  -2.59652
   D31        2.58601  -0.00032   0.00000  -0.00070  -0.00067   2.58534
   D32       -1.09676  -0.00063   0.00000  -0.00462  -0.00456  -1.10132
   D33       -1.99752  -0.00322   0.00000  -0.04979  -0.04981  -2.04733
   D34        2.04461   0.00011   0.00000   0.00522   0.00491   2.04952
   D35       -2.00248  -0.00307   0.00000  -0.04839  -0.04775  -2.05024
   D36        2.23610  -0.00318   0.00000  -0.05360  -0.05267   2.18343
         Item               Value     Threshold  Converged?
 Maximum Force            0.012962     0.000450     NO 
 RMS     Force            0.002760     0.000300     NO 
 Maximum Displacement     0.091019     0.001800     NO 
 RMS     Displacement     0.020575     0.001200     NO 
 Predicted change in Energy=-1.760448D-03
 Lowest energy point so far.  Saving SCF results.
 GradGradGradGradGradGradGradGradGradGradGradGradGradGradGradGradGradGrad

 Leave Link  103 at Thu Dec 11 19:44:14 2025, MaxMem=   268435456 cpu:               0.0 elap:               0.2
 (Enter D:\G16W\l202.exe)
                          Input orientation:                          
 ---------------------------------------------------------------------
 Center     Atomic      Atomic             Coordinates (Angstroms)
 Number     Number       Type             X           Y           Z
 ---------------------------------------------------------------------
      1          7           0       -0.003923   -0.000056    0.012220
      2          1           0       -0.007037    0.936103   -0.357846
      3          1           0        0.802182   -0.467506   -0.365549
      4          1           0       -0.816323   -0.467466   -0.351897
      5          6           0        0.120998    0.000513    3.011290
      6         53           0        0.151835    0.001841    5.152900
      7          1           0        0.115498    1.034284    2.686773
      8          1           0        1.012741   -0.515435    2.677689
      9          1           0       -0.775971   -0.512277    2.694421
 ---------------------------------------------------------------------
                    Distance matrix (angstroms):
                    1          2          3          4          5
     1  N    0.000000
     2  H    1.006654   0.000000
     3  H    1.005496   1.620189   0.000000
     4  H    1.005508   1.620181   1.618562   0.000000
     5  C    3.001671   3.498971   3.476506   3.522584   0.000000
     6  I    5.143039   5.591637   5.576425   5.608954   2.141832
     7  H    2.870079   3.048665   3.470385   3.515261   1.083524
     8  H    2.898956   3.515875   3.050890   3.539232   1.082912
     9  H    2.837717   3.464881   3.443253   3.046915   1.080700
                    6          7          8          9
     6  I    0.000000
     7  H    2.673769   0.000000
     8  H    2.671217   1.790741   0.000000
     9  H    2.677547   1.785113   1.788794   0.000000
 Stoichiometry    CH6IN
 Framework group  C1[X(CH6IN)]
 Deg. of freedom    21
 Full point group                 C1      NOp   1
 RotChk:  IX=3 Diff= 1.41D+00
 Largest Abelian subgroup         C1      NOp   1
 Largest concise Abelian subgroup C1      NOp   1
                         Standard orientation:                         
 ---------------------------------------------------------------------
 Center     Atomic      Atomic             Coordinates (Angstroms)
 Number     Number       Type             X           Y           Z
 ---------------------------------------------------------------------
      1          7           0        4.132037    0.010736   -0.006386
      2          1           0        4.501723    0.473279    0.807701
      3          1           0        4.486888   -0.930052   -0.001899
      4          1           0        4.519268    0.470595   -0.812382
      5          6           0        1.130627   -0.023751    0.013049
      6         53           0       -1.010994    0.002581   -0.001497
      7          1           0        1.454818    0.490859    0.909765
      8          1           0        1.438910   -1.061844    0.017794
      9          1           0        1.473049    0.487700   -0.875251
 ---------------------------------------------------------------------
 Rotational constants (GHZ):          85.9382411           1.1349960           1.1349515
 Leave Link  202 at Thu Dec 11 19:44:14 2025, MaxMem=   268435456 cpu:               0.0 elap:               0.0
 (Enter D:\G16W\l301.exe)
 Standard basis: VSTO-6G (5D, 7F)
 Ernie: Thresh=  0.10000D-02 Tol=  0.10000D-05 Strict=F.
 EHB=         0.000000000 Number of Hydrogen Bonds=     0
  NNHCO=     0 NNPyr=     0 NCTC=     0               EPep=         0.000000000
    EC=        34.788864983  ECS=         1.340293393   EG=         0.205105550
   EHC=         0.000526297  EAt=       -21.558449737  AtH=         0.991250372
 EPDDG=         0.000000000  ECC=        36.334790223 EAtT=        22.549700110
  EHyb=         0.000000000
 There are    24 symmetry adapted cartesian basis functions of A   symmetry.
 There are    23 symmetry adapted basis functions of A   symmetry.
    23 basis functions,   144 primitive gaussians,    24 cartesian basis functions
    11 alpha electrons       11 beta electrons
       nuclear repulsion energy        58.8844903324 Hartrees.
 IExCor=    0 DFT=F Ex=HF Corr=None ExCW=0 ScaHFX=  1.000000
 ScaDFX=  1.000000  1.000000  1.000000  1.000000 ScalE2=  1.000000  1.000000
 IRadAn=      5 IRanWt=     -1 IRanGd=            0 ICorTp=0 IEmpDi=251
 Integral buffers will be    131072 words long.
 Regular integral format.
 Two-electron integral symmetry is turned off.
 R6Disp:  PM7 Dispersion energy=       -0.0007478755 Hartrees.
 Nuclear repulsion after empirical dispersion term =       58.8837424570 Hartrees.
 Leave Link  301 at Thu Dec 11 19:44:14 2025, MaxMem=   268435456 cpu:               0.0 elap:               0.1
 (Enter D:\G16W\l302.exe)
 Do NDO integrals.
 NPDir=0 NMtPBC=     1 NCelOv=     1 NCel=       1 NClECP=     1 NCelD=      1
         NCelK=      1 NCelE2=     1 NClLst=     1 CellRange=     0.0.
 One-electron integrals computed using PRISM.
 NBasis=    23 RedAO= F EigKep=  0.00D+00  NBF=    23
 NBsUse=    23 1.00D-04 EigRej=  0.00D+00 NBFU=    23
 Leave Link  302 at Thu Dec 11 19:44:15 2025, MaxMem=   268435456 cpu:               1.0 elap:               0.2
 (Enter D:\G16W\l303.exe)
 DipDrv:  MaxL=1.
 Leave Link  303 at Thu Dec 11 19:44:15 2025, MaxMem=   268435456 cpu:               0.0 elap:               0.1
 (Enter D:\G16W\l401.exe)
 Initial guess from the checkpoint file:  ".\Gau-27624.chk"
 B after Tr=     0.000000    0.000000    0.000000
         Rot=    0.866835   -0.498595   -0.000173   -0.000112 Ang= -59.81 deg.
 Guess basis will be translated and rotated to current coordinates.
 JPrj=0 DoOrth=T DoCkMO=T.
 Leave Link  401 at Thu Dec 11 19:44:15 2025, MaxMem=   268435456 cpu:               0.0 elap:               0.2
 (Enter D:\G16W\l502.exe)
 Keep J ints in memory in canonical form, NReq=1849470.
 FoFCou: FMM=F IPFlag=           0 FMFlag=           0 FMFlg1=           0
         NFxFlg=           0 DoJE=F BraDBF=F KetDBF=F FulRan=T
         wScrn=  0.000000 ICntrl=       600 IOpCl=  2 I1Cent=           0 NGrid=           0
         NMat0=    1 NMatS0=     71 NMatT0=    0 NMatD0=    1 NMtDS0=    0 NMtDT0=    0
 Symmetry not used in FoFCou.
 Two-electron integral symmetry not used.
 Closed shell SCF:
 Using DIIS extrapolation, IDIIS=  1040.
 Overlap will be assumed to be unity.
 NGot=   268435456 LenX=   268372103 LenY=   268371086
 Requested convergence on RMS density matrix=1.00D-08 within 128 cycles.
 Requested convergence on MAX density matrix=1.00D-06.
 Requested convergence on             energy=1.00D-06.
 No special actions if energy rises.

 Cycle   1  Pass 1  IDiag  1:
 E=-0.237798739255624E-02
 DIIS: error= 3.91D-03 at cycle   1 NSaved=   1.
 NSaved= 1 IEnMin= 1 EnMin=-0.237798739255624E-02 IErMin= 1 ErrMin= 3.91D-03
 ErrMax= 3.91D-03  0.00D+00 EMaxC= 1.00D-01 BMatC= 5.79D-04 BMatP= 5.79D-04
 IDIUse=3 WtCom= 9.61D-01 WtEn= 3.91D-02
 Coeff-Com:  0.100D+01
 Coeff-En:   0.100D+01
 Coeff:      0.100D+01
 GapD=    2.000 DampG=2.000 DampE=1.000 DampFc=2.0000 IDamp=-1.
 RMSDP=1.40D-03 MaxDP=8.28D-03              OVMax= 0.00D+00

 Cycle   2  Pass 1  IDiag  3:
 E=-0.347005665345534E-02 Delta-E=       -0.001092069261 Rises=F Damp=F
 DIIS: error= 1.28D-03 at cycle   2 NSaved=   2.
 NSaved= 2 IEnMin= 2 EnMin=-0.347005665345534E-02 IErMin= 2 ErrMin= 1.28D-03
 ErrMax= 1.28D-03  0.00D+00 EMaxC= 1.00D-01 BMatC= 4.44D-05 BMatP= 5.79D-04
 IDIUse=3 WtCom= 9.87D-01 WtEn= 1.28D-02
 Coeff-Com: -0.151D+00 0.115D+01
 Coeff-En:   0.000D+00 0.100D+01
 Coeff:     -0.150D+00 0.115D+01
 Gap=     0.362 Goal=   None    Shift=    0.000
 RMSDP=5.80D-04 MaxDP=3.14D-03 DE=-1.09D-03 OVMax= 4.94D-03

 Cycle   3  Pass 1  IDiag  3:
 E=-0.360412741208904E-02 Delta-E=       -0.000134070759 Rises=F Damp=F
 DIIS: error= 3.16D-04 at cycle   3 NSaved=   3.
 NSaved= 3 IEnMin= 3 EnMin=-0.360412741208904E-02 IErMin= 3 ErrMin= 3.16D-04
 ErrMax= 3.16D-04  0.00D+00 EMaxC= 1.00D-01 BMatC= 3.24D-06 BMatP= 4.44D-05
 IDIUse=3 WtCom= 9.97D-01 WtEn= 3.16D-03
 Coeff-Com: -0.285D-01-0.987D-01 0.113D+01
 Coeff-En:   0.000D+00 0.000D+00 0.100D+01
 Coeff:     -0.284D-01-0.984D-01 0.113D+01
 Gap=     0.363 Goal=   None    Shift=    0.000
 RMSDP=2.33D-04 MaxDP=1.53D-03 DE=-1.34D-04 OVMax= 2.10D-03

 Cycle   4  Pass 1  IDiag  3:
 E=-0.362064675397988E-02 Delta-E=       -0.000016519342 Rises=F Damp=F
 DIIS: error= 1.09D-04 at cycle   4 NSaved=   4.
 NSaved= 4 IEnMin= 4 EnMin=-0.362064675397988E-02 IErMin= 4 ErrMin= 1.09D-04
 ErrMax= 1.09D-04  0.00D+00 EMaxC= 1.00D-01 BMatC= 3.86D-07 BMatP= 3.24D-06
 IDIUse=3 WtCom= 9.99D-01 WtEn= 1.09D-03
 Coeff-Com:  0.954D-02-0.734D-03-0.481D+00 0.147D+01
 Coeff-En:   0.000D+00 0.000D+00 0.000D+00 0.100D+01
 Coeff:      0.953D-02-0.733D-03-0.481D+00 0.147D+01
 Gap=     0.363 Goal=   None    Shift=    0.000
 RMSDP=1.24D-04 MaxDP=9.67D-04 DE=-1.65D-05 OVMax= 1.34D-03

 Cycle   5  Pass 1  IDiag  3:
 E=-0.362338368670123E-02 Delta-E=       -0.000002736933 Rises=F Damp=F
 DIIS: error= 3.17D-05 at cycle   5 NSaved=   5.
 NSaved= 5 IEnMin= 5 EnMin=-0.362338368670123E-02 IErMin= 5 ErrMin= 3.17D-05
 ErrMax= 3.17D-05  0.00D+00 EMaxC= 1.00D-01 BMatC= 3.11D-08 BMatP= 3.86D-07
 IDIUse=1 WtCom= 1.00D+00 WtEn= 0.00D+00
 Coeff-Com: -0.352D-02 0.298D-01 0.498D-01-0.540D+00 0.146D+01
 Coeff:     -0.352D-02 0.298D-01 0.498D-01-0.540D+00 0.146D+01
 Gap=     0.363 Goal=   None    Shift=    0.000
 RMSDP=3.87D-05 MaxDP=3.30D-04 DE=-2.74D-06 OVMax= 4.65D-04

 Cycle   6  Pass 1  IDiag  3:
 E=-0.362358895456083E-02 Delta-E=       -0.000000205268 Rises=F Damp=F
 DIIS: error= 5.90D-06 at cycle   6 NSaved=   6.
 NSaved= 6 IEnMin= 6 EnMin=-0.362358895456083E-02 IErMin= 6 ErrMin= 5.90D-06
 ErrMax= 5.90D-06  0.00D+00 EMaxC= 1.00D-01 BMatC= 1.20D-09 BMatP= 3.11D-08
 IDIUse=1 WtCom= 1.00D+00 WtEn= 0.00D+00
 Coeff-Com:  0.130D-02-0.155D-01 0.348D-04 0.190D+00-0.702D+00 0.153D+01
 Coeff:      0.130D-02-0.155D-01 0.348D-04 0.190D+00-0.702D+00 0.153D+01
 Gap=     0.363 Goal=   None    Shift=    0.000
 RMSDP=8.16D-06 MaxDP=6.77D-05 DE=-2.05D-07 OVMax= 9.92D-05

 Cycle   7  Pass 1  IDiag  3:
 E=-0.362359796089606E-02 Delta-E=       -0.000000009006 Rises=F Damp=F
 DIIS: error= 1.15D-06 at cycle   7 NSaved=   7.
 NSaved= 7 IEnMin= 7 EnMin=-0.362359796089606E-02 IErMin= 7 ErrMin= 1.15D-06
 ErrMax= 1.15D-06  0.00D+00 EMaxC= 1.00D-01 BMatC= 6.27D-11 BMatP= 1.20D-09
 IDIUse=1 WtCom= 1.00D+00 WtEn= 0.00D+00
 Coeff-Com: -0.180D-03 0.276D-02-0.720D-03-0.304D-01 0.139D+00-0.483D+00
 Coeff-Com:  0.137D+01
 Coeff:     -0.180D-03 0.276D-02-0.720D-03-0.304D-01 0.139D+00-0.483D+00
 Coeff:      0.137D+01
 Gap=     0.363 Goal=   None    Shift=    0.000
 RMSDP=1.50D-06 MaxDP=9.22D-06 DE=-9.01D-09 OVMax= 1.43D-05

 Cycle   8  Pass 1  IDiag  3:
 E=-0.362359836592674E-02 Delta-E=       -0.000000000405 Rises=F Damp=F
 DIIS: error= 2.53D-07 at cycle   8 NSaved=   8.
 NSaved= 8 IEnMin= 8 EnMin=-0.362359836592674E-02 IErMin= 8 ErrMin= 2.53D-07
 ErrMax= 2.53D-07  0.00D+00 EMaxC= 1.00D-01 BMatC= 2.64D-12 BMatP= 6.27D-11
 IDIUse=1 WtCom= 1.00D+00 WtEn= 0.00D+00
 Coeff-Com: -0.167D-05-0.853D-05-0.972D-04-0.377D-03-0.352D-02 0.305D-01
 Coeff-Com: -0.291D+00 0.126D+01
 Coeff:     -0.167D-05-0.853D-05-0.972D-04-0.377D-03-0.352D-02 0.305D-01
 Coeff:     -0.291D+00 0.126D+01
 Gap=     0.363 Goal=   None    Shift=    0.000
 RMSDP=3.69D-07 MaxDP=2.79D-06 DE=-4.05D-10 OVMax= 4.19D-06

 Cycle   9  Pass 1  IDiag  3:
 E=-0.362359838370452E-02 Delta-E=       -0.000000000018 Rises=F Damp=F
 DIIS: error= 7.73D-08 at cycle   9 NSaved=   9.
 NSaved= 9 IEnMin= 9 EnMin=-0.362359838370452E-02 IErMin= 9 ErrMin= 7.73D-08
 ErrMax= 7.73D-08  0.00D+00 EMaxC= 1.00D-01 BMatC= 1.58D-13 BMatP= 2.64D-12
 IDIUse=1 WtCom= 1.00D+00 WtEn= 0.00D+00
 Coeff-Com:  0.687D-05-0.819D-04 0.274D-04 0.128D-02-0.299D-02 0.506D-02
 Coeff-Com:  0.704D-01-0.508D+00 0.143D+01
 Coeff:      0.687D-05-0.819D-04 0.274D-04 0.128D-02-0.299D-02 0.506D-02
 Coeff:      0.704D-01-0.508D+00 0.143D+01
 Gap=     0.363 Goal=   None    Shift=    0.000
 RMSDP=5.74D-08 MaxDP=4.66D-07 DE=-1.78D-11 OVMax= 3.63D-07

 Cycle  10  Pass 1  IDiag  3:
 E=-0.362359838450743E-02 Delta-E=       -0.000000000001 Rises=F Damp=F
 DIIS: error= 2.24D-08 at cycle  10 NSaved=  10.
 NSaved=10 IEnMin=10 EnMin=-0.362359838450743E-02 IErMin=10 ErrMin= 2.24D-08
 ErrMax= 2.24D-08  0.00D+00 EMaxC= 1.00D-01 BMatC= 1.23D-14 BMatP= 1.58D-13
 IDIUse=1 WtCom= 1.00D+00 WtEn= 0.00D+00
 Coeff-Com: -0.350D-05 0.423D-04 0.215D-04-0.667D-03 0.210D-02-0.686D-02
 Coeff-Com:  0.549D-02 0.574D-01-0.451D+00 0.139D+01
 Coeff:     -0.350D-05 0.423D-04 0.215D-04-0.667D-03 0.210D-02-0.686D-02
 Coeff:      0.549D-02 0.574D-01-0.451D+00 0.139D+01
 Gap=     0.363 Goal=   None    Shift=    0.000
 RMSDP=2.20D-08 MaxDP=1.62D-07 DE=-8.03D-13 OVMax= 2.35D-07

 Cycle  11  Pass 1  IDiag  3:
 E=-0.362359838466375E-02 Delta-E=        0.000000000000 Rises=F Damp=F
 DIIS: error= 5.35D-09 at cycle  11 NSaved=  11.
 NSaved=11 IEnMin=11 EnMin=-0.362359838466375E-02 IErMin=11 ErrMin= 5.35D-09
 ErrMax= 5.35D-09  0.00D+00 EMaxC= 1.00D-01 BMatC= 5.42D-16 BMatP= 1.23D-14
 IDIUse=1 WtCom= 1.00D+00 WtEn= 0.00D+00
 Coeff-Com:  0.589D-06-0.726D-05-0.310D-05 0.109D-03-0.349D-03 0.142D-02
 Coeff-Com: -0.323D-02 0.244D-02 0.782D-01-0.468D+00 0.139D+01
 Coeff:      0.589D-06-0.726D-05-0.310D-05 0.109D-03-0.349D-03 0.142D-02
 Coeff:     -0.323D-02 0.244D-02 0.782D-01-0.468D+00 0.139D+01
 Gap=     0.363 Goal=   None    Shift=    0.000
 RMSDP=3.62D-09 MaxDP=3.34D-08 DE=-1.56D-13 OVMax= 2.59D-08

 Cycle  12  Pass 2  IDiag  1:
 SCF Done:  E(RPM7) = -0.362359838466E-02 A.U. after   12 cycles
            NFock= 11  Conv=0.36D-08     -V/T= 0.9999
 KE=-3.635253784708D+01 PE=-6.785292852817D+01 EE= 4.531810031989D+01
 Leave Link  502 at Thu Dec 11 19:44:16 2025, MaxMem=   268435456 cpu:               1.0 elap:               0.6
 (Enter D:\G16W\l701.exe)
 ... and contract with generalized density number  0.
 Compute integral first derivatives.
 R6Disp: Adding PM7 dispersion energy 1st derivatives to the gradient.
 Leave Link  701 at Thu Dec 11 19:44:16 2025, MaxMem=   268435456 cpu:               0.0 elap:               0.2
 (Enter D:\G16W\l702.exe)
 L702 exits ... SP integral derivatives will be done elsewhere.
 Leave Link  702 at Thu Dec 11 19:44:16 2025, MaxMem=   268435456 cpu:               0.0 elap:               0.1
 (Enter D:\G16W\l703.exe)
 Integral derivatives from FoFJK, PRISM(SPDF).
 Compute integral first derivatives, UseDBF=F ICtDFT=           0.
 Calling FoFJK, ICntrl=      2127 FMM=F ISym2X=0 I1Cent= 0 IOpClX= 0 NMat=1 NMatS=1 NMatT=0.
 FoFJK:  IHMeth=43 ICntrl=    2127 DoSepK=F KAlg= 0 I1Cent=           0 FoldK=F
 IRaf=         0 NMat=       1 IRICut=       1 DoRegI=T DoRafI=F ISym2E= 0 IDoP0=3 IntGTp=3.
 FoFCou: FMM=F IPFlag=           0 FMFlag=      100000 FMFlg1=         800
         NFxFlg=           0 DoJE=F BraDBF=F KetDBF=F FulRan=T
         wScrn=  0.000000 ICntrl=      2127 IOpCl=  0 I1Cent=           0 NGrid=           0
         NMat0=    1 NMatS0=      1 NMatT0=    0 NMatD0=    1 NMtDS0=    0 NMtDT0=    0
 Symmetry not used in FoFCou.
 Leave Link  703 at Thu Dec 11 19:44:17 2025, MaxMem=   268435456 cpu:               0.0 elap:               0.2
 (Enter D:\G16W\l716.exe)
 Dipole        = 1.97583291D+00-2.34389748D-02 1.75336048D-02
 ***** Axes restored to original set *****
 -------------------------------------------------------------------
 Center     Atomic                   Forces (Hartrees/Bohr)
 Number     Number              X              Y              Z
 -------------------------------------------------------------------
      1        7          -0.000071198    0.000435624   -0.011521955
      2        1           0.000018273   -0.001392470    0.003808815
      3        1          -0.000617870    0.000479820    0.003638395
      4        1           0.000654024    0.000481028    0.003663519
      5        6           0.001309761    0.000982641    0.011381592
      6       53          -0.000182108   -0.000076721    0.006222593
      7        1           0.000065511    0.002598782   -0.005639636
      8        1           0.002177775   -0.001378805   -0.005936226
      9        1          -0.003354167   -0.002129898   -0.005617097
 -------------------------------------------------------------------
 Cartesian Forces:  Max     0.011521955 RMS     0.004199176
 Leave Link  716 at Thu Dec 11 19:44:17 2025, MaxMem=   268435456 cpu:               0.0 elap:               0.1
 (Enter D:\G16W\l103.exe)

 GradGradGradGradGradGradGradGradGradGradGradGradGradGradGradGradGradGrad
 Berny optimization.
 Using GEDIIS/GDIIS optimizer.
 FormGI is forming the generalized inverse of G from B-inverse, IUseBI=4.
 Internal  Forces:  Max     0.006219277 RMS     0.001528254
 Search for a local minimum.
 Step number   2 out of a maximum of   83 on scan point     1 out of    16
 All quantities printed in internal units (Hartrees-Bohrs-Radians)
 RMS Force = .14687D-02 SwitMx=.10000D-02 MixMth= 1
 Mixed Optimization -- RFO/linear search
 Update second derivatives using D2CorX and points    1    2
 DE= -1.98D-03 DEPred=-1.76D-03 R= 1.13D+00
 TightC=F SS=  1.41D+00  RLast= 1.89D-01 DXNew= 5.0454D-01 5.6774D-01
 Trust test= 1.13D+00 RLast= 1.89D-01 DXMaxT set to 5.05D-01
 ITU=  1  0
 Use linear search instead of GDIIS.
     Eigenvalues ---    0.00824   0.01125   0.01157   0.01758   0.01813
     Eigenvalues ---    0.02433   0.04374   0.05028   0.07032   0.08722
     Eigenvalues ---    0.09103   0.12957   0.13412   0.19175   0.27010
     Eigenvalues ---    0.28987   0.30961   0.44497   0.45648   0.45865
     Eigenvalues --- 1000.000001000.000001000.000001000.000001000.00000
     Eigenvalues --- 1000.000001000.000001000.000001000.000001000.00000
     Eigenvalues --- 1000.000001000.000001000.000001000.000001000.00000
     Eigenvalues --- 1000.000001000.000001000.000001000.000001000.00000
     Eigenvalues --- 1000.000001000.000001000.000001000.000001000.00000
     Eigenvalues --- 1000.000001000.000001000.000001000.000001000.00000
     Eigenvalues --- 1000.000001000.000001000.000001000.000001000.00000
     Eigenvalues --- 1000.000001000.000001000.000001000.000001000.00000
     Eigenvalues --- 1000.000001000.000001000.000001000.000001000.00000
     Eigenvalues --- 1000.000001000.000001000.000001000.000001000.00000
     Eigenvalues --- 1000.000001000.000001000.00000
 RFO step:  Lambda=-1.61173383D-03 EMin= 8.23837114D-03
 Quartic linear search produced a step of  0.13696.
 Iteration  1 RMS(Cart)=  0.01715315 RMS(Int)=  0.00070605
 Iteration  2 RMS(Cart)=  0.00033020 RMS(Int)=  0.00053408
 Iteration  3 RMS(Cart)=  0.00000037 RMS(Int)=  0.00053408
 Iteration  1 RMS(Cart)=  0.00006173 RMS(Int)=  0.00009313
 Iteration  2 RMS(Cart)=  0.00003689 RMS(Int)=  0.00010372
 Iteration  3 RMS(Cart)=  0.00002204 RMS(Int)=  0.00011830
 Iteration  4 RMS(Cart)=  0.00001317 RMS(Int)=  0.00012900
 Iteration  5 RMS(Cart)=  0.00000787 RMS(Int)=  0.00013592
 Iteration  6 RMS(Cart)=  0.00000470 RMS(Int)=  0.00014022
 Iteration  7 RMS(Cart)=  0.00000281 RMS(Int)=  0.00014284
 Iteration  8 RMS(Cart)=  0.00000168 RMS(Int)=  0.00014442
 Iteration  9 RMS(Cart)=  0.00000100 RMS(Int)=  0.00014537
 Iteration 10 RMS(Cart)=  0.00000060 RMS(Int)=  0.00014594
 ITry= 1 IFail=0 DXMaxC= 7.07D-02 DCOld= 1.00D+10 DXMaxT= 5.05D-01 DXLimC= 3.00D+00 Rises=F
 Variable       Old X    -DE/DX   Delta X   Delta X   Delta X     New X
                                 (Linear)    (Quad)   (Total)
    R1        1.90230  -0.00270  -0.00188  -0.01131  -0.01319   1.88911
    R2        1.90011  -0.00209  -0.00133  -0.00840  -0.00973   1.89038
    R3        1.90014  -0.00208  -0.00133  -0.00837  -0.00970   1.89043
    R4        5.67234   0.00244   0.00000   0.00000   0.00000   5.67233
    R5        5.42366  -0.00029  -0.00555  -0.06529  -0.07194   5.35172
    R6        5.47823  -0.00050  -0.00562  -0.06726  -0.07405   5.40418
    R7        5.36251  -0.00077  -0.00552  -0.06535  -0.07156   5.29095
    R8        4.04748   0.00622  -0.01564   0.02536   0.00972   4.05720
    R9        2.04756   0.00359   0.00278   0.01844   0.02151   2.06908
   R10        2.04641   0.00381   0.00367   0.02097   0.02497   2.07137
   R11        2.04223   0.00497   0.00310   0.02281   0.02598   2.06821
    A1        1.87203   0.00073   0.00093   0.01046   0.01121   1.88324
    A2        1.87200   0.00101   0.00092   0.01013   0.01083   1.88283
    A3        1.94685  -0.00084  -0.00108  -0.01058  -0.01160   1.93525
    A4        1.57835  -0.00137  -0.00167  -0.01477  -0.01626   1.56209
    A5        2.09951  -0.00051  -0.00063  -0.00757  -0.00823   2.09129
    A6        2.11122  -0.00043  -0.00077  -0.00779  -0.00856   2.10266
    A7        1.87085   0.00103   0.00156   0.01288   0.01425   1.88510
    A8        1.91995  -0.00084  -0.00102  -0.00994  -0.01089   1.90906
    A9        2.07635  -0.00056  -0.00074  -0.00823  -0.00900   2.06735
   A10        1.55243  -0.00142  -0.00179  -0.01490  -0.01651   1.53592
   A11        2.08210  -0.00051  -0.00067  -0.00792  -0.00857   2.07353
   A12        1.97743  -0.00090  -0.00104  -0.01056  -0.01155   1.96588
   A13        2.13957  -0.00073  -0.00096  -0.00874  -0.00962   2.12995
   A14        2.13372  -0.00073  -0.00071  -0.00802  -0.00864   2.12509
   A15        1.60936  -0.00168  -0.00166  -0.01524  -0.01669   1.59266
   A16        0.63116   0.00104   0.00126   0.00789   0.00888   0.64004
   A17        0.63608   0.00111   0.00099   0.00797   0.00877   0.64484
   A18        0.63386   0.00108   0.00111   0.00763   0.00855   0.64241
   A19        1.87439   0.00109   0.00280   0.03322   0.03624   1.91063
   A20        1.87179   0.00164   0.00766   0.04747   0.05511   1.92690
   A21        1.88118   0.00175  -0.00185   0.01817   0.01603   1.89720
   A22        1.94602  -0.00084  -0.00195  -0.02852  -0.03256   1.91346
   A23        1.93980  -0.00148  -0.00280  -0.02945  -0.03359   1.90620
   A24        1.94666  -0.00180  -0.00294  -0.03327  -0.03742   1.90924
   A25        3.14126  -0.00028  -0.00003   0.00068   0.00073   3.14199
   A26        3.11305   0.00002  -0.00563  -0.01710  -0.02313   3.08992
    D1        2.00572   0.00183   0.00224   0.02326   0.02568   2.03140
    D2       -2.07513   0.00017   0.00020   0.00013   0.00031  -2.07483
    D3       -1.92124   0.00008   0.00008  -0.00168  -0.00169  -1.92293
    D4       -1.91023   0.00011   0.00014  -0.00173  -0.00167  -1.91190
    D5       -2.39410   0.00002   0.00040   0.00359   0.00416  -2.38994
    D6        2.11451   0.00005  -0.00036  -0.00224  -0.00260   2.11191
    D7        1.93579   0.00010  -0.00028  -0.00007  -0.00025   1.93555
    D8        2.45739  -0.00002  -0.00038  -0.00564  -0.00618   2.45121
    D9        1.94914  -0.00002  -0.00022  -0.00011  -0.00024   1.94890
   D10       -3.13659   0.00027   0.00021  -0.00098  -0.00097  -3.13756
   D11        1.23070  -0.00025  -0.00040  -0.00360  -0.00387   1.22683
   D12       -1.19660   0.00013   0.00014   0.00297   0.00317  -1.19342
   D13        0.66897  -0.00005  -0.00006  -0.00335  -0.00349   0.66549
   D14       -0.64738   0.00008   0.00031   0.00220   0.00251  -0.64487
   D15       -1.74870  -0.00005  -0.00031   0.00037   0.00023  -1.74847
   D16       -2.09354  -0.00012  -0.00057  -0.00237  -0.00291  -2.09645
   D17       -2.42615   0.00002  -0.00036   0.00162   0.00144  -2.42470
   D18       -1.91556  -0.00013  -0.00052  -0.00391  -0.00452  -1.92008
   D19       -1.93994  -0.00004  -0.00062  -0.00370  -0.00440  -1.94435
   D20       -1.21535   0.00019   0.00013   0.00071   0.00072  -1.21463
   D21        3.14093  -0.00036  -0.00054  -0.00187  -0.00220   3.13873
   D22        1.19750   0.00011  -0.00026  -0.00063  -0.00099   1.19652
   D23        2.57920  -0.00016  -0.00020  -0.00162  -0.00182   2.57738
   D24        1.74672   0.00006  -0.00009  -0.00139  -0.00165   1.74507
   D25        0.64540  -0.00007  -0.00071  -0.00323  -0.00393   0.64147
   D26        1.21080   0.00016   0.00049  -0.00091  -0.00072   1.21008
   D27       -1.22670  -0.00023  -0.00002   0.00204   0.00232  -1.22438
   D28        3.13745   0.00014   0.00036   0.00307   0.00342   3.14086
   D29       -1.78842  -0.00002   0.00032   0.00229   0.00270  -1.78572
   D30       -2.59652   0.00010   0.00053   0.00231   0.00275  -2.59377
   D31        2.58534  -0.00004  -0.00009   0.00047   0.00047   2.58582
   D32       -1.10132  -0.00013  -0.00062  -0.00183  -0.00228  -1.10360
   D33       -2.04733  -0.00184  -0.00682  -0.05303  -0.05899  -2.10632
   D34        2.04952   0.00154   0.00067   0.03460   0.03414   2.08366
   D35       -2.05024  -0.00204  -0.00654  -0.04994  -0.05498  -2.10522
   D36        2.18343  -0.00357  -0.00721  -0.08454  -0.08913   2.09430
         Item               Value     Threshold  Converged?
 Maximum Force            0.006219     0.000450     NO 
 RMS     Force            0.001469     0.000300     NO 
 Maximum Displacement     0.070714     0.001800     NO 
 RMS     Displacement     0.017226     0.001200     NO 
 Predicted change in Energy=-8.763515D-04
 Lowest energy point so far.  Saving SCF results.
 GradGradGradGradGradGradGradGradGradGradGradGradGradGradGradGradGradGrad

 Leave Link  103 at Thu Dec 11 19:44:17 2025, MaxMem=   268435456 cpu:               0.0 elap:               0.1
 (Enter D:\G16W\l202.exe)
                          Input orientation:                          
 ---------------------------------------------------------------------
 Center     Atomic      Atomic             Coordinates (Angstroms)
 Number     Number       Type             X           Y           Z
 ---------------------------------------------------------------------
      1          7           0       -0.005612   -0.000119    0.021380
      2          1           0       -0.010423    0.933608   -0.335662
      3          1           0        0.798859   -0.466302   -0.347667
      4          1           0       -0.819706   -0.466070   -0.326313
      5          6           0        0.132362    0.001702    3.019876
      6         53           0        0.126484    0.002096    5.166844
      7          1           0        0.123942    1.033882    2.654694
      8          1           0        1.020805   -0.516037    2.640269
      9          1           0       -0.766711   -0.512760    2.666580
 ---------------------------------------------------------------------
                    Distance matrix (angstroms):
                    1          2          3          4          5
     1  N    0.000000
     2  H    0.999674   0.000000
     3  H    1.000348   1.617044   0.000000
     4  H    1.000374   1.616826   1.618705   0.000000
     5  C    3.001669   3.485466   3.464620   3.510302   0.000000
     6  I    5.147160   5.582475   5.575063   5.593677   2.146976
     7  H    2.832011   2.995052   3.423483   3.467957   1.094908
     8  H    2.859769   3.467140   2.996580   3.491501   1.096123
     9  H    2.799849   3.417222   3.396889   2.993726   1.094450
                    6          7          8          9
     6  I    0.000000
     7  H    2.715785   0.000000
     8  H    2.729809   1.790759   0.000000
     9  H    2.704477   1.784798   1.787712   0.000000
 Stoichiometry    CH6IN
 Framework group  C1[X(CH6IN)]
 Deg. of freedom    21
 Full point group                 C1      NOp   1
 RotChk:  IX=3 Diff= 4.74D-01
 Largest Abelian subgroup         C1      NOp   1
 Largest concise Abelian subgroup C1      NOp   1
                         Standard orientation:                         
 ---------------------------------------------------------------------
 Center     Atomic      Atomic             Coordinates (Angstroms)
 Number     Number       Type             X           Y           Z
 ---------------------------------------------------------------------
      1          7           0        4.133805    0.019740   -0.004063
      2          1           0        4.490508    0.190854    0.913996
      3          1           0        4.484666   -0.865627   -0.310196
      4          1           0        4.500072    0.724589   -0.612163
      5          6           0        1.132948   -0.048752    0.009644
      6         53           0       -1.013333    0.004839   -0.000971
      7          1           0        1.497834    0.144106    1.023788
      8          1           0        1.492480   -1.026453   -0.331417
      9          1           0        1.506766    0.730378   -0.661949
 ---------------------------------------------------------------------
 Rotational constants (GHZ):          85.5880733           1.1327490           1.1326171
 Leave Link  202 at Thu Dec 11 19:44:17 2025, MaxMem=   268435456 cpu:               0.0 elap:               0.0
 (Enter D:\G16W\l301.exe)
 Standard basis: VSTO-6G (5D, 7F)
 Ernie: Thresh=  0.10000D-02 Tol=  0.10000D-05 Strict=F.
 EHB=         0.000000000 Number of Hydrogen Bonds=     0
  NNHCO=     0 NNPyr=     0 NCTC=     0               EPep=         0.000000000
    EC=        34.781205008  ECS=         1.326796115   EG=         0.204649026
   EHC=         0.000538414  EAt=       -21.558449737  AtH=         0.991250372
 EPDDG=         0.000000000  ECC=        36.313188564 EAtT=        22.549700110
  EHyb=         0.000000000
 There are    24 symmetry adapted cartesian basis functions of A   symmetry.
 There are    23 symmetry adapted basis functions of A   symmetry.
    23 basis functions,   144 primitive gaussians,    24 cartesian basis functions
    11 alpha electrons       11 beta electrons
       nuclear repulsion energy        58.8628886730 Hartrees.
 IExCor=    0 DFT=F Ex=HF Corr=None ExCW=0 ScaHFX=  1.000000
 ScaDFX=  1.000000  1.000000  1.000000  1.000000 ScalE2=  1.000000  1.000000
 IRadAn=      5 IRanWt=     -1 IRanGd=            0 ICorTp=0 IEmpDi=251
 Integral buffers will be    131072 words long.
 Regular integral format.
 Two-electron integral symmetry is turned off.
 R6Disp:  PM7 Dispersion energy=       -0.0007365964 Hartrees.
 Nuclear repulsion after empirical dispersion term =       58.8621520767 Hartrees.
 Leave Link  301 at Thu Dec 11 19:44:18 2025, MaxMem=   268435456 cpu:               1.0 elap:               0.1
 (Enter D:\G16W\l302.exe)
 Do NDO integrals.
 NPDir=0 NMtPBC=     1 NCelOv=     1 NCel=       1 NClECP=     1 NCelD=      1
         NCelK=      1 NCelE2=     1 NClLst=     1 CellRange=     0.0.
 One-electron integrals computed using PRISM.
 NBasis=    23 RedAO= F EigKep=  0.00D+00  NBF=    23
 NBsUse=    23 1.00D-04 EigRej=  0.00D+00 NBFU=    23
 Leave Link  302 at Thu Dec 11 19:44:18 2025, MaxMem=   268435456 cpu:               0.0 elap:               0.3
 (Enter D:\G16W\l303.exe)
 DipDrv:  MaxL=1.
 Leave Link  303 at Thu Dec 11 19:44:18 2025, MaxMem=   268435456 cpu:               0.0 elap:               0.1
 (Enter D:\G16W\l401.exe)
 Initial guess from the checkpoint file:  ".\Gau-27624.chk"
 B after Tr=     0.000000    0.000000    0.000000
         Rot=    0.985856   -0.167593   -0.000049   -0.000144 Ang= -19.30 deg.
 Guess basis will be translated and rotated to current coordinates.
 JPrj=0 DoOrth=T DoCkMO=T.
 Leave Link  401 at Thu Dec 11 19:44:19 2025, MaxMem=   268435456 cpu:               1.0 elap:               0.3
 (Enter D:\G16W\l502.exe)
 Keep J ints in memory in canonical form, NReq=1849470.
 FoFCou: FMM=F IPFlag=           0 FMFlag=           0 FMFlg1=           0
         NFxFlg=           0 DoJE=F BraDBF=F KetDBF=F FulRan=T
         wScrn=  0.000000 ICntrl=       600 IOpCl=  2 I1Cent=           0 NGrid=           0
         NMat0=    1 NMatS0=     71 NMatT0=    0 NMatD0=    1 NMtDS0=    0 NMtDT0=    0
 Symmetry not used in FoFCou.
 Two-electron integral symmetry not used.
 Closed shell SCF:
 Using DIIS extrapolation, IDIIS=  1040.
 Overlap will be assumed to be unity.
 NGot=   268435456 LenX=   268372103 LenY=   268371086
 Requested convergence on RMS density matrix=1.00D-08 within 128 cycles.
 Requested convergence on MAX density matrix=1.00D-06.
 Requested convergence on             energy=1.00D-06.
 No special actions if energy rises.

 Cycle   1  Pass 1  IDiag  1:
 E=-0.391602162233085E-02
 DIIS: error= 2.54D-03 at cycle   1 NSaved=   1.
 NSaved= 1 IEnMin= 1 EnMin=-0.391602162233085E-02 IErMin= 1 ErrMin= 2.54D-03
 ErrMax= 2.54D-03  0.00D+00 EMaxC= 1.00D-01 BMatC= 1.63D-04 BMatP= 1.63D-04
 IDIUse=3 WtCom= 9.75D-01 WtEn= 2.54D-02
 Coeff-Com:  0.100D+01
 Coeff-En:   0.100D+01
 Coeff:      0.100D+01
 GapD=    2.000 DampG=2.000 DampE=1.000 DampFc=2.0000 IDamp=-1.
 RMSDP=8.57D-04 MaxDP=5.81D-03              OVMax= 0.00D+00

 Cycle   2  Pass 1  IDiag  3:
 E=-0.430502644042008E-02 Delta-E=       -0.000389004818 Rises=F Damp=F
 DIIS: error= 8.31D-04 at cycle   2 NSaved=   2.
 NSaved= 2 IEnMin= 2 EnMin=-0.430502644042008E-02 IErMin= 2 ErrMin= 8.31D-04
 ErrMax= 8.31D-04  0.00D+00 EMaxC= 1.00D-01 BMatC= 1.34D-05 BMatP= 1.63D-04
 IDIUse=3 WtCom= 9.92D-01 WtEn= 8.31D-03
 Coeff-Com: -0.233D+00 0.123D+01
 Coeff-En:   0.000D+00 0.100D+01
 Coeff:     -0.231D+00 0.123D+01
 Gap=     0.362 Goal=   None    Shift=    0.000
 RMSDP=4.22D-04 MaxDP=2.47D-03 DE=-3.89D-04 OVMax= 3.50D-03

 Cycle   3  Pass 1  IDiag  3:
 E=-0.436535178067032E-02 Delta-E=       -0.000060325340 Rises=F Damp=F
 DIIS: error= 1.97D-04 at cycle   3 NSaved=   3.
 NSaved= 3 IEnMin= 3 EnMin=-0.436535178067032E-02 IErMin= 3 ErrMin= 1.97D-04
 ErrMax= 1.97D-04  0.00D+00 EMaxC= 1.00D-01 BMatC= 1.07D-06 BMatP= 1.34D-05
 IDIUse=3 WtCom= 9.98D-01 WtEn= 1.97D-03
 Coeff-Com:  0.294D-01-0.387D+00 0.136D+01
 Coeff-En:   0.000D+00 0.000D+00 0.100D+01
 Coeff:      0.294D-01-0.386D+00 0.136D+01
 Gap=     0.362 Goal=   None    Shift=    0.000
 RMSDP=1.71D-04 MaxDP=1.08D-03 DE=-6.03D-05 OVMax= 1.39D-03

 Cycle   4  Pass 1  IDiag  3:
 E=-0.437182716787277E-02 Delta-E=       -0.000006475387 Rises=F Damp=F
 DIIS: error= 4.76D-05 at cycle   4 NSaved=   4.
 NSaved= 4 IEnMin= 4 EnMin=-0.437182716787277E-02 IErMin= 4 ErrMin= 4.76D-05
 ErrMax= 4.76D-05  0.00D+00 EMaxC= 1.00D-01 BMatC= 6.38D-08 BMatP= 1.07D-06
 IDIUse=1 WtCom= 1.00D+00 WtEn= 0.00D+00
 Coeff-Com:  0.345D-02 0.343D-01-0.336D+00 0.130D+01
 Coeff:      0.345D-02 0.343D-01-0.336D+00 0.130D+01
 Gap=     0.362 Goal=   None    Shift=    0.000
 RMSDP=4.70D-05 MaxDP=3.90D-04 DE=-6.48D-06 OVMax= 4.54D-04

 Cycle   5  Pass 1  IDiag  3:
 E=-0.437224955813065E-02 Delta-E=       -0.000000422390 Rises=F Damp=F
 DIIS: error= 1.62D-05 at cycle   5 NSaved=   5.
 NSaved= 5 IEnMin= 5 EnMin=-0.437224955813065E-02 IErMin= 5 ErrMin= 1.62D-05
 ErrMax= 1.62D-05  0.00D+00 EMaxC= 1.00D-01 BMatC= 4.94D-09 BMatP= 6.38D-08
 IDIUse=1 WtCom= 1.00D+00 WtEn= 0.00D+00
 Coeff-Com: -0.301D-02 0.271D-01-0.488D-01-0.264D+00 0.129D+01
 Coeff:     -0.301D-02 0.271D-01-0.488D-01-0.264D+00 0.129D+01
 Gap=     0.362 Goal=   None    Shift=    0.000
 RMSDP=1.55D-05 MaxDP=1.47D-04 DE=-4.22D-07 OVMax= 1.73D-04

 Cycle   6  Pass 1  IDiag  3:
 E=-0.437228753906282E-02 Delta-E=       -0.000000037981 Rises=F Damp=F
 DIIS: error= 4.67D-06 at cycle   6 NSaved=   6.
 NSaved= 6 IEnMin= 6 EnMin=-0.437228753906282E-02 IErMin= 6 ErrMin= 4.67D-06
 ErrMax= 4.67D-06  0.00D+00 EMaxC= 1.00D-01 BMatC= 4.12D-10 BMatP= 4.94D-09
 IDIUse=1 WtCom= 1.00D+00 WtEn= 0.00D+00
 Coeff-Com:  0.122D-02-0.162D-01 0.458D-01 0.642D-01-0.695D+00 0.160D+01
 Coeff:      0.122D-02-0.162D-01 0.458D-01 0.642D-01-0.695D+00 0.160D+01
 Gap=     0.362 Goal=   None    Shift=    0.000
 RMSDP=5.26D-06 MaxDP=5.14D-05 DE=-3.80D-08 OVMax= 6.19D-05

 Cycle   7  Pass 1  IDiag  3:
 E=-0.437229107295423E-02 Delta-E=       -0.000000003534 Rises=F Damp=F
 DIIS: error= 7.99D-07 at cycle   7 NSaved=   7.
 NSaved= 7 IEnMin= 7 EnMin=-0.437229107295423E-02 IErMin= 7 ErrMin= 7.99D-07
 ErrMax= 7.99D-07  0.00D+00 EMaxC= 1.00D-01 BMatC= 2.26D-11 BMatP= 4.12D-10
 IDIUse=1 WtCom= 1.00D+00 WtEn= 0.00D+00
 Coeff-Com: -0.364D-03 0.504D-02-0.171D-01 0.736D-02 0.145D+00-0.565D+00
 Coeff-Com:  0.143D+01
 Coeff:     -0.364D-03 0.504D-02-0.171D-01 0.736D-02 0.145D+00-0.565D+00
 Coeff:      0.143D+01
 Gap=     0.362 Goal=   None    Shift=    0.000
 RMSDP=1.11D-06 MaxDP=9.55D-06 DE=-3.53D-09 OVMax= 1.17D-05

 Cycle   8  Pass 1  IDiag  3:
 E=-0.437229124010230E-02 Delta-E=       -0.000000000167 Rises=F Damp=F
 DIIS: error= 1.19D-07 at cycle   8 NSaved=   8.
 NSaved= 8 IEnMin= 8 EnMin=-0.437229124010230E-02 IErMin= 8 ErrMin= 1.19D-07
 ErrMax= 1.19D-07  0.00D+00 EMaxC= 1.00D-01 BMatC= 7.16D-13 BMatP= 2.26D-11
 IDIUse=1 WtCom= 1.00D+00 WtEn= 0.00D+00
 Coeff-Com:  0.212D-04-0.403D-03 0.135D-02-0.133D-03-0.183D-01 0.721D-01
 Coeff-Com: -0.322D+00 0.127D+01
 Coeff:      0.212D-04-0.403D-03 0.135D-02-0.133D-03-0.183D-01 0.721D-01
 Coeff:     -0.322D+00 0.127D+01
 Gap=     0.362 Goal=   None    Shift=    0.000
 RMSDP=1.86D-07 MaxDP=1.55D-06 DE=-1.67D-10 OVMax= 1.93D-06

 Cycle   9  Pass 1  IDiag  3:
 E=-0.437229124418081E-02 Delta-E=       -0.000000000004 Rises=F Damp=F
 DIIS: error= 2.19D-08 at cycle   9 NSaved=   9.
 NSaved= 9 IEnMin= 9 EnMin=-0.437229124418081E-02 IErMin= 9 ErrMin= 2.19D-08
 ErrMax= 2.19D-08  0.00D+00 EMaxC= 1.00D-01 BMatC= 2.01D-14 BMatP= 7.16D-13
 IDIUse=1 WtCom= 1.00D+00 WtEn= 0.00D+00
 Coeff-Com:  0.542D-05-0.599D-04 0.203D-03 0.111D-03-0.120D-02 0.494D-02
 Coeff-Com:  0.226D-01-0.263D+00 0.124D+01
 Coeff:      0.542D-05-0.599D-04 0.203D-03 0.111D-03-0.120D-02 0.494D-02
 Coeff:      0.226D-01-0.263D+00 0.124D+01
 Gap=     0.362 Goal=   None    Shift=    0.000
 RMSDP=1.96D-08 MaxDP=1.29D-07 DE=-4.08D-12 OVMax= 1.60D-07

 Cycle  10  Pass 1  IDiag  3:
 E=-0.437229124420213E-02 Delta-E=        0.000000000000 Rises=F Damp=F
 DIIS: error= 6.34D-09 at cycle  10 NSaved=  10.
[...]
           A4          84.29601  83.49200  82.69117  82.06128  81.66063
           A5         120.55882 121.01449 121.47576 122.00483 122.56311
           A6         120.69119 121.18853 121.67680 122.29593 123.07286
           A7         108.99204 108.76381 108.48723 108.21048 107.98963
           A8         110.00553 110.27334 110.60266 110.80947 110.81919
           A9         120.83112 121.39043 121.98978 122.50743 122.87675
           A10         84.42824  83.71719  83.05768  82.29620  81.44221
           A11        120.70846 121.22570 121.81093 122.22846 122.35772
           A12        109.97302 110.18977 110.47600 110.72326 110.89253
           A13        120.63073 121.11364 121.63916 122.10502 122.45994
           A14        120.82049 121.34853 121.93266 122.47121 122.89893
           A15         84.39415  83.63651  82.93064  82.21053  81.50311
           A16         43.90906  45.55560  47.21884  48.83646  50.29455
           A17         43.89373  45.55001  47.21645  48.83083  50.30527
           A18         43.92298  45.55654  47.21724  48.84527  50.29132
           A19        107.74437 106.64604 105.19913 103.25801 100.63651
           A20        107.73950 106.65145 105.20927 103.26405 100.63081
           A21        107.71167 106.64399 105.19975 103.25319 100.63206
           A22        111.16303 112.14156 113.38931 114.90319 116.67961
           A23        111.12536 112.14612 113.37786 114.88681 116.66121
           A24        111.17112 112.13702 113.37691 114.92262 116.68410
           A25        180.05405 180.01382 179.99834 180.01275 179.96364
           A26        180.01262 180.01744 179.99254 179.99663 179.96123
           D1         118.83991 118.30922 117.66543 117.04417 116.52368
           D2        -119.98510-119.98588-119.97146-119.98833-120.01257
           D3        -108.73743-108.03900-107.26343-106.58174-106.06278
           D4        -108.78937-108.14418-107.45454-106.70408-105.91681
           D5        -142.43570-143.77531-145.20061-146.68076-148.06333
           D6         119.96072 119.93523 119.89744 119.93025 120.06558
           D7         108.71441 108.01970 107.24975 106.56279 106.05342
           D8         142.39329 143.68447 145.05735 146.57498 148.14331
           D9         108.77839 108.11215 107.39727 106.66308 105.97348
           D10       -179.81370-179.79895-179.77911-179.68940-179.49491
           D11         71.36976  72.03792  72.73129  73.59745  74.60081
           D12        -71.05312 -71.63341 -72.28902 -72.98258 -73.58005
           D13         38.75962  39.20432  39.66562  40.29061  41.06378
           D14        -38.40633 -38.79124 -39.21754 -39.66484 -40.04979
           D15       -103.65131-104.47373-105.36151-106.27597-107.10282
           D16       -120.05418-120.07889-120.13110-120.08142-119.92185
           D17       -142.54816-143.94130-145.48681-146.85547-147.88380
           D18       -108.81734-108.17134-107.48812-106.72094-105.93988
           D19       -108.78591-108.11254-107.40212-106.65616-105.96318
           D20        -71.07627 -71.75995 -72.51568 -73.10766 -73.43213
           D21       -179.84087-179.81790-179.81418-179.69847-179.48238
           D22         71.38258  72.14189  72.91159  73.69818  74.48328
           D23        147.54900 147.34851 147.12016 146.99469 146.98059
           D24        104.02937 104.98407 105.98307 107.01592 108.01354
           D25         38.78438  39.30158  39.83910  40.40478  40.96051
           D26         71.47189  72.18135  72.97113  73.74781  74.45167
           D27        -71.02353 -71.64655 -72.32606 -72.97753 -73.54250
           D28       -179.83151-179.74556-179.68629-179.64566-179.55354
           D29       -103.63366-104.48015-105.39172-106.28437-107.07953
           D30       -147.18472-146.90339-146.61481-146.32792-146.02327
           D31        147.57030 147.41412 147.24122 147.06095 146.92370
           D32        -65.24498 -65.68249 -66.14397 -66.61113 -67.05303
           D33       -117.83785-116.39151-114.43131-111.66709-107.72802
           D34        117.79968 116.38946 114.41995 111.65348 107.72217
           D35       -117.81964-116.39110-114.43161-111.67632-107.72366
           D36        124.38067 127.21945 131.14844 136.67020 144.55417
                          11        12        13        14        15
     Eigenvalues --     0.03324   0.04078   0.04270   0.03859   0.03316
           R1           1.00773   1.00920   1.01213   1.01741   1.02389
           R2           1.00779   1.00919   1.01215   1.01750   1.02412
           R3           1.00758   1.00925   1.01210   1.01747   1.02400
           R4           2.00167   1.90167   1.80166   1.70166   1.60166
           R5           2.16074   2.17881   2.23850   2.23679   2.20891
           R6           2.16067   2.17903   2.23857   2.23674   2.20896
           R7           2.16110   2.17883   2.23826   2.23680   2.20896
           R8           2.32202   2.47619   2.79178   3.01759   3.16296
           R9           1.08857   1.08709   1.08808   1.09469   1.10252
           R10          1.08867   1.08706   1.08810   1.09474   1.10276
           R11          1.08857   1.08708   1.08803   1.09476   1.10268
           A1         107.92660 108.71181 109.78912 109.87058 109.27770
           A2         107.95956 108.70181 109.79106 109.87117 109.28736
           A3         110.96940 110.23202 109.12441 109.07734 109.64569
           A4          80.96534  93.74390  93.44605  93.61526  94.17525
           A5         122.32988  93.78748  93.45693  93.65511  94.15087
           A6         123.48370 140.15864 137.85933 137.41323 137.96863
           A7         107.97222 108.69510 109.78398 109.86148 109.26220
           A8         110.93121 110.22442 109.15735 109.07193 109.67452
           A9         123.45388 140.15167 137.88896 137.40551 137.99311
           A10         80.92299  93.74294  93.47084  93.61159  94.19029
           A11        122.32586  93.76747  93.48957  93.65056  94.17791
           A12        110.94945 110.23061 109.17573 109.06591 109.67775
           A13        122.31924  93.78401  93.50298  93.64805  94.18262
           A14        123.47341 140.15385 137.90671 137.40230 138.00363
           A15         80.94889  93.74896  93.49002  93.59931  94.19615
           A16         51.33956  51.19377  49.20285  48.54002  48.52223
           A17         51.32133  51.20072  49.20547  48.53796  48.51477
           A18         51.34304  51.18804  49.20524  48.54395  48.52054
           A19         96.90348  90.69447  81.48141  75.91741  72.13047
           A20         96.87451  90.70350  81.45494  75.86409  71.81265
           A21         96.88067  90.70262  81.50939  75.85047  71.71082
           A22        118.58576 119.98653 117.84417 114.24820 110.80339
           A23        118.55026 120.00124 117.84620 114.24142 110.78523
           A24        118.61404 119.96777 117.84633 114.25623 110.78831
           A25        180.01242 179.98913 180.00298 180.04314 180.25027
           A26        180.01931 179.99234 180.02130 179.99363 179.94081
           D1         116.44302 118.17108 120.78519 120.98630 119.52556
           D2        -119.96739-120.01004-119.98732-120.00694-119.99511
           D3        -105.57458-125.46080-124.91886-124.88509-125.14870
           D4        -105.53167-109.05821-110.08803-110.20007-109.70757
           D5        -148.79442-125.50310-124.95433-124.93994-125.13114
           D6         120.02100 120.00157 120.00073 120.00405 120.00898
           D7         105.59649 109.04791 110.09182 110.20035 109.71904
           D8         148.86588 125.51082 124.95237 124.93802 125.14018
           D9         105.60411 125.45680 124.95830 124.87069 125.17350
           D10       -178.84586-125.51951-124.95460-124.95007-125.10962
           D11         75.58656 125.43323 124.93159 124.85831 125.15484
           D12        -73.29579  -0.04962  -0.01958  -0.08411   0.03747
           D13         41.89855  91.76140  91.57056  91.59732  91.90698
           D14        -39.58181  33.61272  33.34093  33.18046  33.29696
           D15       -106.97679 -33.72711 -33.37906 -33.34337 -33.22801
           D16       -120.01161-119.98838-120.01194-119.98902-119.99591
           D17       -148.82893-125.49129-124.98932-124.91456-125.13226
           D18       -105.60246-125.43098-124.95960-124.86191-125.15224
           D19       -105.60147-109.04010-110.08737-110.18937-109.69536
           D20        -73.27128  -0.05871  -0.03574  -0.06498   0.03907
           D21       -178.88177-125.50857-124.98038-124.94162-125.13759
           D22         75.49863 125.45348 124.93475 124.85583 125.16860
           D23        147.43022-159.18039-158.34141-158.20261-158.38545
           D24        109.21260 159.11582 158.29526 158.12040 158.42809
           D25         41.81763  91.77599  91.57527  91.59657  91.90313
           D26         75.55765 125.43258 124.95358 124.84957 125.17134
           D27        -73.27931  -0.07759  -0.02078  -0.07971   0.01465
           D28       -178.89990-125.50642-124.97788-124.95480-125.13603
           D29       -106.96732 -33.74941 -33.38182 -33.34070 -33.23321
           D30       -145.18592 -91.84408 -91.61737 -91.69023 -91.87654
           D31        147.41911-159.18391-158.33735-158.21405-158.40151
           D32        -67.39497 -67.33983 -66.71999 -66.52383 -66.52496
           D33       -101.74566 -91.20789 -75.59494 -67.13023 -61.94397
           D34        101.74085  91.20774  75.62613  67.12527  61.89270
           D35       -101.72223 -91.21735 -75.59520 -67.05490 -61.50424
           D36        156.53692 177.57491-151.22133-134.18016-123.39694
                          16
     Eigenvalues --     0.03096
           R1           1.03186
           R2           1.03167
           R3           1.03176
           R4           1.50167
           R5           2.17185
           R6           2.17175
           R7           2.17194
           R8           3.25825
           R9           1.11182
           R10          1.11189
           R11          1.11195
           A1         108.19048
           A2         108.18677
           A3         110.73205
           A4          95.09544
           A5          95.06855
           A6         139.17081
           A7         108.20930
           A8         110.69176
           A9         139.12802
           A10         95.04944
           A11         95.03085
           A12        110.73208
           A13         95.07493
           A14        139.17457
           A15         95.10063
           A16         48.71456
           A17         48.71776
           A18         48.71066
           A19         68.79496
           A20         68.38417
           A21         68.22497
           A22        107.33569
           A23        107.34828
           A24        107.31799
           A25        180.33147
           A26        179.90895
           D1         116.99988
           D2        -119.98487
           D3        -125.59109
           D4        -108.81179
           D5        -125.53522
           D6         120.00664
           D7         108.81454
           D8         125.58811
           D9         125.63230
           D10       -125.57007
           D11        125.62186
           D12          0.07668
           D13         92.33708
           D14         33.35044
           D15        -33.22662
           D16       -120.00848
           D17       -125.59437
           D18       -125.60010
           D19       -108.83248
           D20          0.02103
           D21       -125.56635
           D22        125.61189
           D23       -158.85113
           D24        158.88566
           D25         92.30860
           D26        125.61540
           D27          0.03375
           D28       -125.55563
           D29        -33.25102
           D30        -92.28186
           D31       -158.85892
           D32        -66.57706
           D33        -57.90868
           D34         57.80178
           D35        -57.31091
           D36       -115.11269
 Largest change from initial coordinates is atom    5       0.333 Angstoms.
 GradGradGradGradGradGradGradGradGradGradGradGradGradGradGradGradGradGrad

 Leave Link  103 at Thu Dec 11 19:50:16 2025, MaxMem=   268435456 cpu:               1.0 elap:               0.2
 (Enter D:\G16W\l202.exe)
                          Input orientation:                          
 ---------------------------------------------------------------------
 Center     Atomic      Atomic             Coordinates (Angstroms)
 Number     Number       Type             X           Y           Z
 ---------------------------------------------------------------------
      1          7           0        0.029904    0.000340    0.474362
      2          1           0        0.560939    0.797733    0.091078
      3          1           0        0.439325   -0.869264    0.099514
      4          1           0       -0.942987    0.069815    0.137926
      5          6           0        0.074861    0.003984    1.975353
      6         53           0        0.176277   -0.007177    5.232009
      7          1           0       -0.363574    0.935747    2.394548
      8          1           0        1.118250   -0.070024    2.352409
      9          1           0       -0.492995   -0.851154    2.402801
 ---------------------------------------------------------------------
                    Distance matrix (angstroms):
                    1          2          3          4          5
     1  N    0.000000
     2  H    1.031862   0.000000
     3  H    1.031672   1.671448   0.000000
     4  H    1.031762   1.671482   1.671566   0.000000
     5  C    1.501669   2.101618   2.100992   2.101544   0.000000
     6  I    4.759905   5.217760   5.211036   5.216164   3.258254
     7  H    2.171849   2.485909   3.028183   2.485538   1.111815
     8  H    2.171752   2.485400   2.485007   3.028562   1.111894
     9  H    2.171944   3.028805   2.484890   2.486028   1.111950
                    6          7          8          9
     6  I    0.000000
     7  H    3.038377   0.000000
     8  H    3.030406   1.791411   0.000000
     9  H    3.027316   1.791601   1.791316   0.000000
 Stoichiometry    CH6IN
 Framework group  C1[X(CH6IN)]
 Deg. of freedom    21
 Full point group                 C1      NOp   1
 RotChk:  IX=0 Diff= 1.49D-10
 Largest Abelian subgroup         C1      NOp   1
 Largest concise Abelian subgroup C1      NOp   1
                         Standard orientation:                         
 ---------------------------------------------------------------------
 Center     Atomic      Atomic             Coordinates (Angstroms)
 Number     Number       Type             X           Y           Z
 ---------------------------------------------------------------------
      1          7           0        3.693319   -0.002538   -0.000202
      2          1           0        4.061680    0.625281    0.731162
      3          1           0        4.053577   -0.952440    0.179375
      4          1           0        4.059740    0.314385   -0.911151
      5          6           0        2.191666    0.004309    0.000244
      6         53           0       -1.066585   -0.000252   -0.000016
      7          1           0        1.788106    1.022221   -0.192439
      8          1           0        1.782462   -0.334932    0.976858
      9          1           0        1.780179   -0.669236   -0.782985
 ---------------------------------------------------------------------
 Rotational constants (GHZ):          83.5259109           1.1342734           1.1342710
 Leave Link  202 at Thu Dec 11 19:50:16 2025, MaxMem=   268435456 cpu:               0.0 elap:               0.0
 (Enter D:\G16W\l601.exe)
 Copying SCF densities to generalized density rwf, IOpCl= 0 IROHF=0.

 **********************************************************************

            Population analysis using the SCF density.

 **********************************************************************

 Orbital symmetries:
       Occupied  (A) (A) (A) (A) (A) (A) (A) (A) (A) (A) (A)
       Virtual   (A) (A) (A) (A) (A) (A) (A) (A) (A) (A) (A) (A)
 The electronic state is 1-A.
 Alpha  occ. eigenvalues --   -1.52653  -0.96793  -0.79040  -0.79032  -0.69726
 Alpha  occ. eigenvalues --   -0.65225  -0.56524  -0.56513  -0.25637  -0.25401
 Alpha  occ. eigenvalues --   -0.25401
 Alpha virt. eigenvalues --   -0.04004   0.04139   0.06513   0.06521   0.13152
 Alpha virt. eigenvalues --    0.13160   0.16772   4.97124   4.97144   4.97144
 Alpha virt. eigenvalues --    4.97726   4.97726
          Condensed to atoms (all electrons):
               1          2          3          4          5          6
     1  N    5.186597   0.000000   0.000000   0.000000   0.000000   0.000000
     2  H    0.000000   0.717751   0.000000   0.000000   0.000000   0.000000
     3  H    0.000000   0.000000   0.717630   0.000000   0.000000   0.000000
     4  H    0.000000   0.000000   0.000000   0.717706   0.000000   0.000000
     5  C    0.000000   0.000000   0.000000   0.000000   4.347095   0.000000
     6  I    0.000000   0.000000   0.000000   0.000000   0.000000   7.977006
     7  H    0.000000   0.000000   0.000000   0.000000   0.000000   0.000000
     8  H    0.000000   0.000000   0.000000   0.000000   0.000000   0.000000
     9  H    0.000000   0.000000   0.000000   0.000000   0.000000   0.000000
               7          8          9
     1  N    0.000000   0.000000   0.000000
     2  H    0.000000   0.000000   0.000000
     3  H    0.000000   0.000000   0.000000
     4  H    0.000000   0.000000   0.000000
     5  C    0.000000   0.000000   0.000000
     6  I    0.000000   0.000000   0.000000
     7  H    0.779116   0.000000   0.000000
     8  H    0.000000   0.778662   0.000000
     9  H    0.000000   0.000000   0.778436
 Mulliken charges:
               1
     1  N   -0.186597
     2  H    0.282249
     3  H    0.282370
     4  H    0.282294
     5  C   -0.347095
     6  I   -0.977006
     7  H    0.220884
     8  H    0.221338
     9  H    0.221564
 Sum of Mulliken charges =   0.00000
 Mulliken charges with hydrogens summed into heavy atoms:
               1
     1  N    0.660315
     5  C    0.316690
     6  I   -0.977006
 Charge=              0.0000 electrons
 Dipole moment (field-independent basis, Debye):
    X=             20.8057    Y=             -0.0064    Z=              0.0002  Tot=             20.8057
 N-N= 6.140253332062D+01 E-N=-7.143539122719D+01  KE=-3.666882176495D+01
 Leave Link  601 at Thu Dec 11 19:50:16 2025, MaxMem=   268435456 cpu:               0.0 elap:               0.1
 (Enter D:\G16W\l9999.exe)
 1|1|UNPC-HS-R-MBKE-2023|Scan|RPM7|ZDO|C1H6I1N1|15816|11-Dec-2025|0||#P
 M7 opt(modredundant)||title: NH3_Preview - Flexible Scan||0,1|N,0.0299
 040666,0.000339689,0.474361826|H,0.5609389394,0.7977325623,0.091078377
 4|H,0.4393253556,-0.8692642566,0.0995142775|H,-0.9429870512,0.06981492
 43,0.1379257328|C,0.0748613059,0.0039838563,1.9753529941|I,0.176276692
 7,-0.0071769533,5.2320093183|H,-0.3635742349,0.9357473234,2.3945476349
 |H,1.1182495987,-0.0700236278,2.3524091558|H,-0.4929946727,-0.85115351
 75,2.4028006833||Version=EM64W-G16RevA.03|State=1-A|HF=-0.0046238,-0.0
 044224,-0.0039673,-0.0031216,-0.0017015,0.0005465,0.0039218,0.0087609,
 0.0153483,0.0237192,0.0332414,0.0407786,0.0427034,0.0385934,0.0331614,
 0.0309604|RMSD=4.513e-009,2.608e-009,3.533e-009,1.335e-009,5.501e-009,
 6.933e-009,1.738e-009,8.397e-009,4.780e-009,8.440e-009,5.320e-009,1.40
 3e-009,9.590e-009,9.456e-009,2.936e-009,2.794e-009|PG=C01 [X(C1H6I1N1)
 ]||@


 HAPPINESS IS NOT HAVING WHAT YOU WANT --
 HAPPINESS IS WANTING WHAT YOU HAVE!

              -- FROM MRS. SEVERN'S DESK
 Job cpu time:       0 days  0 hours  6 minutes  6.0 seconds.
 Elapsed time:       0 days  0 hours  3 minutes 40.4 seconds.
 File lengths (MBytes):  RWF=      6 Int=      0 D2E=      0 Chk=      3 Scr=      1
 Normal termination of Gaussian 16 at Thu Dec 11 19:50:16 2025.
