 Entering Gaussian System, Link 0=g16.exe
 Input=nh3_irc.gjf
 Output=nh3_irc.log
 Initial command:
 D:\G16W\l1.exe ".\Gau-2204.inp" "nh3_irc.log" /scrdir=".\"
 Entering Link 1 = D:\G16W\l1.exe PID=     25304.
  
 Copyright (c) 1988,1990,1992,1993,1995,1998,2003,2009,2016,
            Gaussian, Inc.  All Rights Reserved.
  
 This is part of the Gaussian(R) 16 program.  It is based on
 the Gaussian(R) 09 system (copyright 2009, Gaussian, Inc.),
 the Gaussian(R) 03 system (copyright 2003, Gaussian, Inc.),
 the Gaussian(R) 98 system (copyright 1998, Gaussian, Inc.),
 the Gaussian(R) 94 system (copyright 1995, Gaussian, Inc.),
 the Gaussian 92(TM) system (copyright 1992, Gaussian, Inc.),
 the Gaussian 90(TM) system (copyright 1990, Gaussian, Inc.),
 the Gaussian 88(TM) system (copyright 1988, Gaussian, Inc.),
 the Gaussian 86(TM) system (copyright 1986, Carnegie Mellon
 University), and the Gaussian 82(TM) system (copyright 1983,
 Carnegie Mellon University). Gaussian is a federally registered
 trademark of Gaussian, Inc.
  
 This software contains proprietary and confidential information,
 including trade secrets, belonging to Gaussian, Inc.
  
 This software is provided under written license and may be
 used, copied, transmitted, or stored only in accord with that
 written license.
  
 The following legend is applicable only to US Government
 contracts under FAR:
  
                    RESTRICTED RIGHTS LEGEND
  
 Use, reproduction and disclosure by the US Government is
 subject to restrictions as set forth in subparagraphs (a)
 and (c) of the Commercial Computer Software - Restricted
 Rights clause in FAR 52.227-19.
  
 Gaussian, Inc.
 340 Quinnipiac St., Bldg. 40, Wallingford CT 06492
  
  
 ---------------------------------------------------------------
 Warning -- This program may not be used in any manner that
 competes with the business of Gaussian, Inc. or will provide
 assistance to any competitor of Gaussian, Inc.  The licensee
 of this program is prohibited from giving any competitor of
 Gaussian, Inc. access to this program.  By using this program,
 the user acknowledges that Gaussian, Inc. is engaged in the
 business of creating and licensing software in the field of
 computational chemistry and represents and warrants to the
 licensee that it is not a competitor of Gaussian, Inc. and that
 it will not use this program in any manner prohibited above.
 ---------------------------------------------------------------
  

 Cite this work as:
 Gaussian 16, Revision A.03,
 M. J. Frisch, G. W. Trucks, H. B. Schlegel, G. E. Scuseria, 
 M. A. Robb, J. R. Cheeseman, G. Scalmani, V. Barone, 
 G. A. Petersson, H. Nakatsuji, X. Li, M. Caricato, A. V. Marenich, 
 J. Bloino, B. G. Janesko, R. Gomperts, B. Mennucci, H. P. Hratchian, 
 J. V. Ortiz, A. F. Izmaylov, J. L. Sonnenberg, D. Williams-Young, 
 F. Ding, F. Lipparini, F. Egidi, J. Goings, B. Peng, A. Petrone, 
 T. Henderson, D. Ranasinghe, V. G. Zakrzewski, J. Gao, N. Rega, 
 G. Zheng, W. Liang, M. Hada, M. Ehara, K. Toyota, R. Fukuda, 
 J. Hasegawa, M. Ishida, T. Nakajima, Y. Honda, O. Kitao, H. Nakai, 
 T. Vreven, K. Throssell, J. A. Montgomery, Jr., J. E. Peralta, 
 F. Ogliaro, M. J. Bearpark, J. J. Heyd, E. N. Brothers, K. N. Kudin, 
 V. N. Staroverov, T. A. Keith, R. Kobayashi, J. Normand, 
 K. Raghavachari, A. P. Rendell, J. C. Burant, S. S. Iyengar, 
 J. Tomasi, M. Cossi, J. M. Millam, M. Klene, C. Adamo, R. Cammi, 
 J. W. Ochterski, R. L. Martin, K. Morokuma, O. Farkas, 
 J. B. Foresman, and D. J. Fox, Gaussian, Inc., Wallingford CT, 2016.
 
 ******************************************
 Gaussian 16:  EM64W-G16RevA.03 17-Dec-2016
                11-Dec-2025 
 ******************************************
 %nproc=2
 Will use up to    2 processors via shared memory.
 %mem=2GB
 --------------------------------------------
 #PM7 IRC(calcall, maxpoints=15, stepsize=10)
 --------------------------------------------
 1/10=4,18=10,26=1,38=1,39=10,42=15,44=3,71=1,172=1/1,23;
 2/12=2,17=6,18=5,29=1,40=1/2;
 3/5=2,25=1,41=4200000,71=2,140=1/1,2,3;
 4/35=1/1;
 5/5=2,35=1,38=5/2;
 8/6=4,10=90,11=11/1;
 11/6=1,8=1,9=11,15=111,16=1/1,2,10;
 10/6=1,13=1/2;
 6/7=2,8=2,9=2,10=2,18=1,28=1/1;
 7/10=1,25=1/1,2,3,16;
 1/10=4,18=10,26=1,39=10,42=15,44=3,71=1/23(2);
 2/29=1/2;
 99/5=20/99;
 2/29=1/2;
 3/5=2,25=1,41=4200000,71=2,135=20,140=1/1,2,3;
 4/5=5,16=3,35=1/1;
 5/5=2,35=1,38=5/2;
 8/6=4,10=90,11=11/1;
 11/6=1,8=1,9=11,15=111,16=1/1,2,10;
 10/6=1,13=1/2;
 7/10=1,25=1/1,2,3,16;
 1/10=4,18=10,26=1,39=10,42=15,44=3,71=1/23(-8);
 2/29=1/2;
 6/7=2,8=2,9=2,10=2,18=1,19=2,28=1/1;
 99/5=20/99;
 Leave Link    1 at Thu Dec 11 19:57:24 2025, MaxMem=   268435456 cpu:               0.0 elap:               0.1
 (Enter D:\G16W\l101.exe)
 --------------
 title: NH3_IRC
 --------------
 Symbolic Z-matrix:
 Charge =  0 Multiplicity = 1
 N                    -0.14529   0.69611   3.48535 
 H                    -0.00064  -0.15928   4.00442 
 H                     0.57565   1.36332   3.72434 
 H                    -1.05195   1.08112   3.71286 
 C                    -0.07053   0.33794   1.69204 
 I                     0.03989  -0.19114  -0.95701 
 H                    -0.89798  -0.36662   1.67821 
 H                     0.9459   -0.04693   1.69123 
 H                    -0.24511   1.3583    1.36092 
 
 ITRead=  0  0  0  0  0  0  0  0  0
 MicOpt= -1 -1 -1 -1 -1 -1 -1 -1 -1
 NAtoms=      9 NQM=        9 NQMF=       0 NMMI=      0 NMMIF=      0
                NMic=       0 NMicF=      0.
                    Isotopes and Nuclear Properties:
 (Nuclear quadrupole moments (NQMom) in fm**2, nuclear magnetic moments (NMagM)
  in nuclear magnetons)

  Atom         1           2           3           4           5           6           7           8           9
 IAtWgt=          14           1           1           1          12         127           1           1           1
 AtmWgt=  14.0030740   1.0078250   1.0078250   1.0078250  12.0000000 126.9004000   1.0078250   1.0078250   1.0078250
 NucSpn=           2           1           1           1           0           5           1           1           1
 AtZEff=   0.0000000   0.0000000   0.0000000   0.0000000   0.0000000   0.0000000   0.0000000   0.0000000   0.0000000
 NQMom=    2.0440000   0.0000000   0.0000000   0.0000000   0.0000000 -71.0000000   0.0000000   0.0000000   0.0000000
 NMagM=    0.4037610   2.7928460   2.7928460   2.7928460   0.0000000   2.8132800   2.7928460   2.7928460   2.7928460
 AtZNuc=   7.0000000   1.0000000   1.0000000   1.0000000   6.0000000  53.0000000   1.0000000   1.0000000   1.0000000
 Leave Link  101 at Thu Dec 11 19:57:24 2025, MaxMem=   268435456 cpu:               0.0 elap:               0.1
 (Enter D:\G16W\l123.exe)
 IRC-IRC-IRC-IRC-IRC-IRC-IRC-IRC-IRC-IRC-IRC-IRC-IRC-IRC-IRC-IRC-IRC-IRC
 ------------------------------------------------------------------------
 INPUT DATA FOR L123
 ------------------------------------------------------------------------
 GENERAL PARAMETERS:
 Follow reaction path in both directions.
 Maximum points per path      =  15
 Step size                    =   0.100 bohr
 Integration scheme           = HPC                                 
    Redo corrector integration= Yes                                 
    DWI Weight Power          =  2
    DWI will use Hessian update vectors when possible.
    Max correction cycles     =  20
 Initial Hessian              = CalcFC
 Hessian evaluation           = Analytic at all predictor steps
                              = Update at all corrector steps
 Hessian updating method      = Bofill                              
 ------------------------------------------------------------------------
 IRC-IRC-IRC-IRC-IRC-IRC-IRC-IRC-IRC-IRC-IRC-IRC-IRC-IRC-IRC-IRC-IRC-IRC
 Leave Link  123 at Thu Dec 11 19:57:25 2025, MaxMem=   268435456 cpu:               0.0 elap:               0.0
 (Enter D:\G16W\l202.exe)
                          Input orientation:                          
 ---------------------------------------------------------------------
 Center     Atomic      Atomic             Coordinates (Angstroms)
 Number     Number       Type             X           Y           Z
 ---------------------------------------------------------------------
      1          7           0       -0.145286    0.696105    3.485354
      2          1           0       -0.000641   -0.159279    4.004420
      3          1           0        0.575648    1.363315    3.724344
      4          1           0       -1.051950    1.081118    3.712858
      5          6           0       -0.070531    0.337937    1.692036
      6         53           0        0.039893   -0.191137   -0.957013
      7          1           0       -0.897977   -0.366618    1.678213
      8          1           0        0.945901   -0.046925    1.691226
      9          1           0       -0.245106    1.358301    1.360922
 ---------------------------------------------------------------------
                    Distance matrix (angstroms):
                    1          2          3          4          5
     1  N    0.000000
     2  H    1.010957   0.000000
     3  H    1.010956   1.651921   0.000000
     4  H    1.010956   1.651921   1.651921   0.000000
     5  C    1.830263   2.366269   2.366268   2.366268   0.000000
     6  I    4.533885   4.961701   4.961699   4.961698   2.703622
     7  H    2.227483   2.501887   3.057923   2.501885   1.086856
     8  H    2.227482   2.501886   2.501886   3.057922   1.086855
     9  H    2.227483   3.057923   2.501884   2.501885   1.086856
                    6          7          8          9
     6  I    0.000000
     7  H    2.802643   0.000000
     8  H    2.802645   1.871432   0.000000
     9  H    2.802643   1.871433   1.871432   0.000000
 Symmetry turned off by external request.
 This structure is nearly, but not quite of a higher symmetry.
 Consider Symm=Loose if the higher symmetry is desired.
 Stoichiometry    CH6IN
 Framework group  C1[X(CH6IN)]
 Deg. of freedom    21
 Full point group                 C1      NOp   1
 Rotational constants (GHZ):          80.4761450           1.3219313           1.3219313
 Leave Link  202 at Thu Dec 11 19:57:25 2025, MaxMem=   268435456 cpu:               0.0 elap:               0.0
 (Enter D:\G16W\l301.exe)
 Standard basis: VSTO-6G (5D, 7F)
 Ernie: Thresh=  0.10000D-02 Tol=  0.10000D-05 Strict=F.
 EHB=         0.000000000 Number of Hydrogen Bonds=     0
  NNHCO=     0 NNPyr=     0 NCTC=     0               EPep=         0.000000000
    EC=        37.539711789  ECS=         1.253431176   EG=         0.222709354
   EHC=         0.000466916  EAt=       -21.558449737  AtH=         0.991250372
 EPDDG=         0.000000000  ECC=        39.016319236 EAtT=        22.549700110
  EHyb=         0.000000000
    23 basis functions,   144 primitive gaussians,    24 cartesian basis functions
    11 alpha electrons       11 beta electrons
       nuclear repulsion energy        61.5660193451 Hartrees.
 IExCor=    0 DFT=F Ex=HF Corr=None ExCW=0 ScaHFX=  1.000000
 ScaDFX=  1.000000  1.000000  1.000000  1.000000 ScalE2=  1.000000  1.000000
 IRadAn=      5 IRanWt=     -1 IRanGd=            0 ICorTp=0 IEmpDi=251
 Integral buffers will be    131072 words long.
 Regular integral format.
 Two-electron integral symmetry is turned off.
 R6Disp:  PM7 Dispersion energy=       -0.0007595725 Hartrees.
 Nuclear repulsion after empirical dispersion term =       61.5652597726 Hartrees.
 Leave Link  301 at Thu Dec 11 19:57:25 2025, MaxMem=   268435456 cpu:               0.0 elap:               0.1
 (Enter D:\G16W\l302.exe)
 Do NDO integrals.
 NPDir=0 NMtPBC=     1 NCelOv=     1 NCel=       1 NClECP=     1 NCelD=      1
         NCelK=      1 NCelE2=     1 NClLst=     1 CellRange=     0.0.
 One-electron integrals computed using PRISM.
 NBasis=    23 RedAO= F EigKep=  0.00D+00  NBF=    23
 NBsUse=    23 1.00D-04 EigRej=  0.00D+00 NBFU=    23
 Leave Link  302 at Thu Dec 11 19:57:25 2025, MaxMem=   268435456 cpu:               0.0 elap:               0.1
 (Enter D:\G16W\l303.exe)
 DipDrv:  MaxL=1.
 Leave Link  303 at Thu Dec 11 19:57:25 2025, MaxMem=   268435456 cpu:               0.0 elap:               0.0
 (Enter D:\G16W\l401.exe)
 Nonelectrostatic core Hamiltonian diagonalized for initial guess.
 JPrj=0 DoOrth=F DoCkMO=F.
 Leave Link  401 at Thu Dec 11 19:57:26 2025, MaxMem=   268435456 cpu:               0.0 elap:               0.0
 (Enter D:\G16W\l502.exe)
 Keep J ints in memory in canonical form, NReq=1849398.
 FoFCou: FMM=F IPFlag=           0 FMFlag=           0 FMFlg1=           0
         NFxFlg=           0 DoJE=F BraDBF=F KetDBF=F FulRan=T
         wScrn=  0.000000 ICntrl=       600 IOpCl=  2 I1Cent=           0 NGrid=           0
         NMat0=    1 NMatS0=     71 NMatT0=    0 NMatD0=    1 NMtDS0=    0 NMtDT0=    0
 Symmetry not used in FoFCou.
 Two-electron integral symmetry not used.
 Closed shell SCF:
 Using DIIS extrapolation, IDIIS=  1040.
 Overlap will be assumed to be unity.
 NGot=   268435456 LenX=   268372175 LenY=   268371158
 Requested convergence on RMS density matrix=1.00D-08 within 128 cycles.
 Requested convergence on MAX density matrix=1.00D-06.
 Requested convergence on             energy=1.00D-06.
 No special actions if energy rises.

 Cycle   1  Pass 1  IDiag  1:
 E= 0.307410090833663    
 DIIS: error= 3.57D-02 at cycle   1 NSaved=   1.
 NSaved= 1 IEnMin= 1 EnMin= 0.307410090833663     IErMin= 1 ErrMin= 3.57D-02
 ErrMax= 3.57D-02  0.00D+00 EMaxC= 1.00D-01 BMatC= 5.31D-02 BMatP= 5.31D-02
 IDIUse=3 WtCom= 6.43D-01 WtEn= 3.57D-01
 Coeff-Com:  0.100D+01
 Coeff-En:   0.100D+01
 Coeff:      0.100D+01
 GapD=    2.000 DampG=2.000 DampE=0.500 DampFc=1.0000 IDamp=-1.
 RMSDP=2.15D-02 MaxDP=1.47D-01              OVMax= 0.00D+00

 Cycle   2  Pass 1  IDiag  1:
 E= 0.973655136372571E-01 Delta-E=       -0.210044577196 Rises=F Damp=F
 DIIS: error= 1.80D-02 at cycle   2 NSaved=   2.
 NSaved= 2 IEnMin= 2 EnMin= 0.973655136372571E-01 IErMin= 2 ErrMin= 1.80D-02
 ErrMax= 1.80D-02  0.00D+00 EMaxC= 1.00D-01 BMatC= 1.08D-02 BMatP= 5.31D-02
 IDIUse=3 WtCom= 8.20D-01 WtEn= 1.80D-01
 Coeff-Com: -0.594D+00 0.159D+01
 Coeff-En:   0.000D+00 0.100D+01
 Coeff:     -0.488D+00 0.149D+01
 RMSDP=1.35D-02 MaxDP=9.29D-02 DE=-2.10D-01 OVMax= 0.00D+00

 Cycle   3  Pass 1  IDiag  3:
 E= 0.460250737341283E-01 Delta-E=       -0.051340439903 Rises=F Damp=F
 DIIS: error= 4.66D-03 at cycle   3 NSaved=   3.
 NSaved= 3 IEnMin= 3 EnMin= 0.460250737341283E-01 IErMin= 3 ErrMin= 4.66D-03
 ErrMax= 4.66D-03  0.00D+00 EMaxC= 1.00D-01 BMatC= 5.98D-04 BMatP= 1.08D-02
 IDIUse=3 WtCom= 9.53D-01 WtEn= 4.66D-02
 Coeff-Com: -0.555D-01-0.106D+00 0.116D+01
 Coeff-En:   0.000D+00 0.000D+00 0.100D+01
 Coeff:     -0.529D-01-0.101D+00 0.115D+01
 Gap=     0.267 Goal=   None    Shift=    0.000
 RMSDP=3.57D-03 MaxDP=2.64D-02 DE=-5.13D-02 OVMax= 3.00D-02

 Cycle   4  Pass 1  IDiag  3:
 E= 0.431344304695500E-01 Delta-E=       -0.002890643265 Rises=F Damp=F
 DIIS: error= 9.53D-04 at cycle   4 NSaved=   4.
 NSaved= 4 IEnMin= 4 EnMin= 0.431344304695500E-01 IErMin= 4 ErrMin= 9.53D-04
 ErrMax= 9.53D-04  0.00D+00 EMaxC= 1.00D-01 BMatC= 2.15D-05 BMatP= 5.98D-04
 IDIUse=3 WtCom= 9.90D-01 WtEn= 9.53D-03
 Coeff-Com:  0.293D-01-0.434D-01-0.209D+00 0.122D+01
 Coeff-En:   0.000D+00 0.000D+00 0.000D+00 0.100D+01
 Coeff:      0.291D-01-0.430D-01-0.207D+00 0.122D+01
 Gap=     0.265 Goal=   None    Shift=    0.000
 RMSDP=7.49D-04 MaxDP=5.33D-03 DE=-2.89D-03 OVMax= 8.00D-03

 Cycle   5  Pass 1  IDiag  3:
 E= 0.430121347572978E-01 Delta-E=       -0.000122295712 Rises=F Damp=F
 DIIS: error= 2.72D-04 at cycle   5 NSaved=   5.
 NSaved= 5 IEnMin= 5 EnMin= 0.430121347572978E-01 IErMin= 5 ErrMin= 2.72D-04
 ErrMax= 2.72D-04  0.00D+00 EMaxC= 1.00D-01 BMatC= 1.88D-06 BMatP= 2.15D-05
 IDIUse=3 WtCom= 9.97D-01 WtEn= 2.72D-03
 Coeff-Com: -0.871D-02 0.123D-01 0.717D-01-0.567D+00 0.149D+01
 Coeff-En:   0.000D+00 0.000D+00 0.000D+00 0.000D+00 0.100D+01
 Coeff:     -0.869D-02 0.122D-01 0.715D-01-0.565D+00 0.149D+01
 Gap=     0.263 Goal=   None    Shift=    0.000
 RMSDP=2.30D-04 MaxDP=1.70D-03 DE=-1.22D-04 OVMax= 1.80D-03

 Cycle   6  Pass 1  IDiag  3:
 E= 0.430014955278111E-01 Delta-E=       -0.000010639229 Rises=F Damp=F
 DIIS: error= 5.47D-05 at cycle   6 NSaved=   6.
 NSaved= 6 IEnMin= 6 EnMin= 0.430014955278111E-01 IErMin= 6 ErrMin= 5.47D-05
 ErrMax= 5.47D-05  0.00D+00 EMaxC= 1.00D-01 BMatC= 8.04D-08 BMatP= 1.88D-06
 IDIUse=1 WtCom= 1.00D+00 WtEn= 0.00D+00
 Coeff-Com: -0.912D-03 0.189D-02 0.375D-02-0.444D-02-0.215D+00 0.121D+01
 Coeff:     -0.912D-03 0.189D-02 0.375D-02-0.444D-02-0.215D+00 0.121D+01
 Gap=     0.263 Goal=   None    Shift=    0.000
 RMSDP=4.36D-05 MaxDP=3.32D-04 DE=-1.06D-05 OVMax= 3.23D-04

 Cycle   7  Pass 1  IDiag  3:
 E= 0.430010783643979E-01 Delta-E=       -0.000000417163 Rises=F Damp=F
 DIIS: error= 8.97D-06 at cycle   7 NSaved=   7.
 NSaved= 7 IEnMin= 7 EnMin= 0.430010783643979E-01 IErMin= 7 ErrMin= 8.97D-06
 ErrMax= 8.97D-06  0.00D+00 EMaxC= 1.00D-01 BMatC= 3.12D-09 BMatP= 8.04D-08
 IDIUse=1 WtCom= 1.00D+00 WtEn= 0.00D+00
 Coeff-Com:  0.419D-03-0.528D-03-0.320D-02 0.787D-02 0.606D-01-0.482D+00
 Coeff-Com:  0.142D+01
 Coeff:      0.419D-03-0.528D-03-0.320D-02 0.787D-02 0.606D-01-0.482D+00
 Coeff:      0.142D+01
 Gap=     0.263 Goal=   None    Shift=    0.000
 RMSDP=8.16D-06 MaxDP=5.46D-05 DE=-4.17D-07 OVMax= 5.68D-05

 Cycle   8  Pass 1  IDiag  3:
 E= 0.430010636368152E-01 Delta-E=       -0.000000014728 Rises=F Damp=F
 DIIS: error= 1.53D-06 at cycle   8 NSaved=   8.
 NSaved= 8 IEnMin= 8 EnMin= 0.430010636368152E-01 IErMin= 8 ErrMin= 1.53D-06
 ErrMax= 1.53D-06  0.00D+00 EMaxC= 1.00D-01 BMatC= 5.94D-11 BMatP= 3.12D-09
 IDIUse=1 WtCom= 1.00D+00 WtEn= 0.00D+00
 Coeff-Com:  0.500D-05-0.600D-04 0.305D-03 0.525D-03-0.114D-01 0.794D-01
 Coeff-Com: -0.309D+00 0.124D+01
 Coeff:      0.500D-05-0.600D-04 0.305D-03 0.525D-03-0.114D-01 0.794D-01
 Coeff:     -0.309D+00 0.124D+01
 Gap=     0.263 Goal=   None    Shift=    0.000
 RMSDP=1.32D-06 MaxDP=1.12D-05 DE=-1.47D-08 OVMax= 1.53D-05

 Cycle   9  Pass 1  IDiag  3:
 E= 0.430010633209861E-01 Delta-E=       -0.000000000316 Rises=F Damp=F
 DIIS: error= 3.37D-07 at cycle   9 NSaved=   9.
 NSaved= 9 IEnMin= 9 EnMin= 0.430010633209861E-01 IErMin= 9 ErrMin= 3.37D-07
 ErrMax= 3.37D-07  0.00D+00 EMaxC= 1.00D-01 BMatC= 3.08D-12 BMatP= 5.94D-11
 IDIUse=1 WtCom= 1.00D+00 WtEn= 0.00D+00
 Coeff-Com: -0.240D-05 0.303D-04-0.133D-03-0.502D-03 0.606D-02-0.375D-01
 Coeff-Com:  0.141D+00-0.618D+00 0.151D+01
 Coeff:     -0.240D-05 0.303D-04-0.133D-03-0.502D-03 0.606D-02-0.375D-01
 Coeff:      0.141D+00-0.618D+00 0.151D+01
 Gap=     0.263 Goal=   None    Shift=    0.000
 RMSDP=3.42D-07 MaxDP=2.88D-06 DE=-3.16D-10 OVMax= 3.91D-06

 Cycle  10  Pass 1  IDiag  3:
 E= 0.430010633006290E-01 Delta-E=       -0.000000000020 Rises=F Damp=F
 DIIS: error= 9.15D-08 at cycle  10 NSaved=  10.
 NSaved=10 IEnMin=10 EnMin= 0.430010633006290E-01 IErMin=10 ErrMin= 9.15D-08
 ErrMax= 9.15D-08  0.00D+00 EMaxC= 1.00D-01 BMatC= 1.42D-13 BMatP= 3.08D-12
 IDIUse=1 WtCom= 1.00D+00 WtEn= 0.00D+00
 Coeff-Com:  0.113D-05-0.985D-05 0.419D-04 0.109D-03-0.151D-02 0.962D-02
 Coeff-Com: -0.376D-01 0.174D+00-0.592D+00 0.145D+01
 Coeff:      0.113D-05-0.985D-05 0.419D-04 0.109D-03-0.151D-02 0.962D-02
 Coeff:     -0.376D-01 0.174D+00-0.592D+00 0.145D+01
 Gap=     0.263 Goal=   None    Shift=    0.000
 RMSDP=9.14D-08 MaxDP=7.66D-07 DE=-2.04D-11 OVMax= 1.03D-06

 Cycle  11  Pass 1  IDiag  3:
 E= 0.430010632991724E-01 Delta-E=       -0.000000000001 Rises=F Damp=F
 DIIS: error= 1.40D-08 at cycle  11 NSaved=  11.
 NSaved=11 IEnMin=11 EnMin= 0.430010632991724E-01 IErMin=11 ErrMin= 1.40D-08
 ErrMax= 1.40D-08  0.00D+00 EMaxC= 1.00D-01 BMatC= 4.32D-15 BMatP= 1.42D-13
 IDIUse=1 WtCom= 1.00D+00 WtEn= 0.00D+00
 Coeff-Com: -0.309D-06 0.176D-05-0.578D-05-0.300D-04 0.305D-03-0.183D-02
 Coeff-Com:  0.698D-02-0.338D-01 0.128D+00-0.423D+00 0.132D+01
 Coeff:     -0.309D-06 0.176D-05-0.578D-05-0.300D-04 0.305D-03-0.183D-02
 Coeff:      0.698D-02-0.338D-01 0.128D+00-0.423D+00 0.132D+01
 Gap=     0.263 Goal=   None    Shift=    0.000
 RMSDP=1.33D-08 MaxDP=1.07D-07 DE=-1.46D-12 OVMax= 1.43D-07

 Cycle  12  Pass 1  IDiag  3:
 E= 0.430010632994211E-01 Delta-E=        0.000000000000 Rises=F Damp=F
 DIIS: error= 2.21D-09 at cycle  12 NSaved=  12.
 NSaved=12 IEnMin=11 EnMin= 0.430010632991724E-01 IErMin=12 ErrMin= 2.21D-09
 ErrMax= 2.21D-09  0.00D+00 EMaxC= 1.00D-01 BMatC= 2.00D-16 BMatP= 4.32D-15
 IDIUse=1 WtCom= 1.00D+00 WtEn= 0.00D+00
 Coeff-Com: -0.887D-08-0.259D-08 0.145D-06 0.881D-06-0.135D-04 0.863D-04
 Coeff-Com: -0.303D-03 0.156D-02-0.836D-02 0.535D-01-0.390D+00 0.134D+01
 Coeff:     -0.887D-08-0.259D-08 0.145D-06 0.881D-06-0.135D-04 0.863D-04
 Coeff:     -0.303D-03 0.156D-02-0.836D-02 0.535D-01-0.390D+00 0.134D+01
 Gap=     0.263 Goal=   None    Shift=    0.000
 RMSDP=2.58D-09 MaxDP=1.59D-08 DE= 2.49D-13 OVMax= 2.31D-08

 Cycle  13  Pass 2  IDiag  1:
 SCF Done:  E(RPM7) =  0.430010632994E-01 A.U. after   13 cycles
            NFock= 12  Conv=0.26D-08     -V/T= 1.0012
 KE=-3.641753951344D+01 PE=-7.251089792060D+01 EE= 4.740617872474D+01
 Leave Link  502 at Thu Dec 11 19:57:26 2025, MaxMem=   268435456 cpu:               0.0 elap:               0.6
 (Enter D:\G16W\l801.exe)
 Range of M.O.s used for correlation:     1    23
 NBasis=    23 NAE=    11 NBE=    11 NFC=     0 NFV=     0
 NROrb=     23 NOA=    11 NOB=    11 NVA=    12 NVB=    12
 Leave Link  801 at Thu Dec 11 19:57:26 2025, MaxMem=   268435456 cpu:               0.0 elap:               0.1
 (Enter D:\G16W\l1101.exe)
 Using compressed storage, NAtomX=     9.
 Will process     10 centers per pass.
 R6Disp: Adding PM7 dispersion energy 1st derivatives to the gradient.
 Leave Link 1101 at Thu Dec 11 19:57:27 2025, MaxMem=   268435456 cpu:               1.0 elap:               0.1
 (Enter D:\G16W\l1102.exe)
 Symmetrizing basis deriv contribution to polar:
 IMax=3 JMax=2 DiffMx= 0.00D+00
 Leave Link 1102 at Thu Dec 11 19:57:27 2025, MaxMem=   268435456 cpu:               0.0 elap:               0.1
 (Enter D:\G16W\l1110.exe)
 Forming Gx(P) for the SCF density, NAtomX=     9.
 Integral derivatives from FoFJK, PRISM(SPDF).
 Do as many integral derivatives as possible in FoFJK.
 G2DrvN: MDV=     268375814.
 G2DrvN: will do    10 centers at a time, making    1 passes.
 Calling FoFCou, ICntrl=  3107 FMM=F I1Cent=   0 AccDes= 0.00D+00.
 FoFJK:  IHMeth=43 ICntrl=    3107 DoSepK=F KAlg= 0 I1Cent=           0 FoldK=F
 IRaf=         0 NMat=       1 IRICut=       1 DoRegI=T DoRafI=F ISym2E= 0 IDoP0=3 IntGTp=3.
 FoFCou: FMM=F IPFlag=           0 FMFlag=      100000 FMFlg1=           0
         NFxFlg=           0 DoJE=F BraDBF=F KetDBF=F FulRan=T
         wScrn=  0.000000 ICntrl=      3107 IOpCl=  0 I1Cent=           0 NGrid=           0
         NMat0=    1 NMatS0=      1 NMatT0=    0 NMatD0=    1 NMtDS0=    0 NMtDT0=    0
 Symmetry not used in FoFCou.
 End of G2Drv F.D. properties file   721 does not exist.
 End of G2Drv F.D. properties file   722 does not exist.
 End of G2Drv F.D. properties file   788 does not exist.
 Leave Link 1110 at Thu Dec 11 19:57:27 2025, MaxMem=   268435456 cpu:               0.0 elap:               0.1
 (Enter D:\G16W\l1002.exe)
 Minotr:  Closed shell wavefunction.
          IDoAtm=111111111
          Direct CPHF calculation.
          Differentiating once with respect to nuclear coordinates.
          Electric field/nuclear overlap derivatives assumed to be zero.
          Requested convergence is 1.0D-08 RMS, and 1.0D-07 maximum.
          NewPWx=T KeepS1=F KeepF1=F KeepIn=T MapXYZ=F SortEE=F KeepMc=T.
 Keep J ints in memory in canonical form, NReq=1850362.
 FoFCou: FMM=F IPFlag=           0 FMFlag=           0 FMFlg1=           0
         NFxFlg=           0 DoJE=F BraDBF=F KetDBF=F FulRan=T
         wScrn=  0.000000 ICntrl=       600 IOpCl=  2 I1Cent=           0 NGrid=           0
         NMat0=    1 NMatS0=     71 NMatT0=    0 NMatD0=    1 NMtDS0=    0 NMtDT0=    0
 Symmetry not used in FoFCou.
 Two-electron integral symmetry not used.
          MDV=     268435456 using IRadAn=       1.
          Solving linear equations separately, MaxMat=       0.
          There are    30 degrees of freedom in the 1st order CPHF.  IDoFFX=5 NUNeed=    30.
 LinEq1:  Iter=  0 NonCon=    27 RMS=3.29D-02 Max=2.48D-01 NDo=    27
 AX will form    30 AO Fock derivatives at one time.
 LinEq1:  Iter=  1 NonCon=    27 RMS=2.75D-03 Max=1.58D-02 NDo=    30
 LinEq1:  Iter=  2 NonCon=    27 RMS=3.77D-04 Max=1.40D-03 NDo=    30
 LinEq1:  Iter=  3 NonCon=    27 RMS=7.95D-05 Max=4.34D-04 NDo=    30
 LinEq1:  Iter=  4 NonCon=    27 RMS=1.34D-05 Max=6.63D-05 NDo=    30
 LinEq1:  Iter=  5 NonCon=    27 RMS=1.70D-06 Max=1.24D-05 NDo=    30
 LinEq1:  Iter=  6 NonCon=    27 RMS=3.22D-07 Max=1.71D-06 NDo=    30
 LinEq1:  Iter=  7 NonCon=    14 RMS=5.22D-08 Max=2.59D-07 NDo=    30
 LinEq1:  Iter=  8 NonCon=     0 RMS=5.45D-09 Max=2.90D-08 NDo=    30
 Linear equations converged to 1.000D-08 1.000D-07 after     8 iterations.
 End of Minotr F.D. properties file   721 does not exist.
 End of Minotr F.D. properties file   722 does not exist.
 End of Minotr F.D. properties file   788 does not exist.
 Leave Link 1002 at Thu Dec 11 19:57:27 2025, MaxMem=   268435456 cpu:               0.0 elap:               0.1
 (Enter D:\G16W\l601.exe)
 Copying SCF densities to generalized density rwf, IOpCl= 0 IROHF=0.

 **********************************************************************

            Population analysis using the SCF density.

 **********************************************************************

 Alpha  occ. eigenvalues --   -1.43283  -0.94529  -0.71481  -0.71481  -0.70856
 Alpha  occ. eigenvalues --   -0.56263  -0.56263  -0.54952  -0.29117  -0.28788
 Alpha  occ. eigenvalues --   -0.28788
 Alpha virt. eigenvalues --   -0.02448   0.07560   0.14214   0.14214   0.17247
 Alpha virt. eigenvalues --    0.17247   0.17353   4.83043   4.83043   4.83166
 Alpha virt. eigenvalues --    4.84046   4.84046
          Condensed to atoms (all electrons):
               1          2          3          4          5          6
     1  N    5.506002   0.000000   0.000000   0.000000   0.000000   0.000000
     2  H    0.000000   0.730435   0.000000   0.000000   0.000000   0.000000
     3  H    0.000000   0.000000   0.730435   0.000000   0.000000   0.000000
     4  H    0.000000   0.000000   0.000000   0.730435   0.000000   0.000000
     5  C    0.000000   0.000000   0.000000   0.000000   4.054020   0.000000
     6  I    0.000000   0.000000   0.000000   0.000000   0.000000   7.717921
     7  H    0.000000   0.000000   0.000000   0.000000   0.000000   0.000000
     8  H    0.000000   0.000000   0.000000   0.000000   0.000000   0.000000
     9  H    0.000000   0.000000   0.000000   0.000000   0.000000   0.000000
               7          8          9
     1  N    0.000000   0.000000   0.000000
     2  H    0.000000   0.000000   0.000000
     3  H    0.000000   0.000000   0.000000
     4  H    0.000000   0.000000   0.000000
     5  C    0.000000   0.000000   0.000000
     6  I    0.000000   0.000000   0.000000
     7  H    0.843584   0.000000   0.000000
     8  H    0.000000   0.843584   0.000000
     9  H    0.000000   0.000000   0.843584
 Mulliken charges:
               1
     1  N   -0.506002
     2  H    0.269565
     3  H    0.269565
     4  H    0.269565
     5  C   -0.054020
     6  I   -0.717921
     7  H    0.156416
     8  H    0.156416
     9  H    0.156416
 Sum of Mulliken charges =   0.00000
 Mulliken charges with hydrogens summed into heavy atoms:
               1
     1  N    0.302693
     5  C    0.415228
     6  I   -0.717921
 APT charges:
               1
     1  N   -0.506002
     2  H    0.269565
     3  H    0.269565
     4  H    0.269565
     5  C   -0.054020
     6  I   -0.717921
     7  H    0.156416
     8  H    0.156416
     9  H    0.156416
 Sum of APT charges =   0.00000
 APT charges with hydrogens summed into heavy atoms:
               1
     1  N    0.302693
     5  C    0.415228
     6  I   -0.717921
 Charge=              0.0000 electrons
 Dipole moment (field-independent basis, Debye):
    X=             -0.5616    Y=              2.7068    Z=             13.5306  Tot=             13.8101
 N-N= 6.156525977260D+01 E-N=-7.251089795697D+01  KE=-3.641753951344D+01
  Exact polarizability:   0.000   0.000   0.000   0.000   0.000   0.000
 Approx polarizability:  11.477  -0.539  13.958  -2.680  12.834  74.419
 Leave Link  601 at Thu Dec 11 19:57:27 2025, MaxMem=   268435456 cpu:               0.0 elap:               0.1
 (Enter D:\G16W\l701.exe)
 ... and contract with generalized density number  0.
 Compute integral second derivatives.
 R6Disp: Adding PM7 dispersion energy 2nd derivatives to the Hessian.
 Leave Link  701 at Thu Dec 11 19:57:27 2025, MaxMem=   268435456 cpu:               0.0 elap:               0.1
 (Enter D:\G16W\l702.exe)
 L702 exits ... SP integral derivatives will be done elsewhere.
 Leave Link  702 at Thu Dec 11 19:57:27 2025, MaxMem=   268435456 cpu:               0.0 elap:               0.1
 (Enter D:\G16W\l703.exe)
 Integral derivatives from FoFJK, PRISM(SPDF).
 Compute integral second derivatives, UseDBF=F ICtDFT=           0.
 Calling FoFJK, ICntrl=    100127 FMM=F ISym2X=0 I1Cent= 0 IOpClX= 0 NMat=1 NMatS=1 NMatT=0.
 FoFJK:  IHMeth=43 ICntrl=  100127 DoSepK=F KAlg= 0 I1Cent=           0 FoldK=F
 IRaf=         0 NMat=       1 IRICut=       1 DoRegI=T DoRafI=F ISym2E= 0 IDoP0=3 IntGTp=3.
 FoFCou: FMM=F IPFlag=           0 FMFlag=      100000 FMFlg1=         800
         NFxFlg=           0 DoJE=F BraDBF=F KetDBF=F FulRan=T
         wScrn=  0.000000 ICntrl=    100127 IOpCl=  0 I1Cent=           0 NGrid=           0
         NMat0=    1 NMatS0=      1 NMatT0=    0 NMatD0=    1 NMtDS0=    0 NMtDT0=    0
 Symmetry not used in FoFCou.
 Leave Link  703 at Thu Dec 11 19:57:28 2025, MaxMem=   268435456 cpu:               1.0 elap:               0.1
 (Enter D:\G16W\l716.exe)
 Dipole        =-2.20938339D-01 1.06494624D+00 5.32333183D+00
 Polarizability= 0.00000000D+00 0.00000000D+00 0.00000000D+00
                 0.00000000D+00 0.00000000D+00 0.00000000D+00
 -------------------------------------------------------------------
 Center     Atomic                   Forces (Hartrees/Bohr)
 Number     Number              X              Y              Z
 -------------------------------------------------------------------
      1        7          -0.000000350   -0.000000271    0.000000703
      2        1           0.000000037    0.000000149    0.000000014
      3        1           0.000000288    0.000000250    0.000000226
      4        1          -0.000000052    0.000000077    0.000000133
      5        6          -0.000000369   -0.000000223   -0.000002092
      6       53           0.000000032   -0.000000057   -0.000000168
      7        1          -0.000000153   -0.000000080    0.000000464
      8        1           0.000000601   -0.000000177    0.000000362
      9        1          -0.000000034    0.000000332    0.000000358
 -------------------------------------------------------------------
 Cartesian Forces:  Max     0.000002092 RMS     0.000000492
 Z-matrix is all fixed cartesians, so copy forces.
 Force constants in Cartesian coordinates: 
                1             2             3             4             5 
      1  0.445261D+00
      2  0.169789D-02  0.437482D+00
      3  0.849912D-02 -0.407203D-01  0.241730D+00
      4 -0.655838D-01  0.194223D-01 -0.116460D-01  0.617232D-01
      5  0.196268D-01 -0.178292D+00  0.686527D-01 -0.261340D-01  0.212009D+00
      6 -0.166682D-01  0.976188D-01 -0.987397D-01  0.166086D-01 -0.975205D-01
      7 -0.146844D+00 -0.774129D-01 -0.244841D-01  0.689210D-02 -0.114513D-02
      8 -0.826018D-01 -0.136992D+00 -0.199247D-01 -0.243750D-01 -0.253881D-01
      9 -0.465592D-01 -0.386348D-01 -0.587803D-01  0.143037D-01  0.136799D-01
     10 -0.197614D+00  0.563652D-01  0.279941D-01 -0.460131D-02  0.837577D-02
     11  0.613496D-01 -0.873119D-01 -0.974787D-02  0.318454D-01 -0.136442D-01
     12  0.550915D-01 -0.200040D-01 -0.576901D-01 -0.181614D-01  0.813232D-02
     13 -0.328632D-01 -0.955413D-03 -0.478365D-02  0.981034D-03 -0.837274D-03
     14 -0.955412D-03 -0.284851D-01  0.229196D-01 -0.852310D-03  0.520513D-02
     15 -0.478362D-02  0.229196D-01  0.816942D-01 -0.183725D-02  0.109127D-01
     16  0.206673D-02  0.241612D-03  0.120974D-02 -0.192572D-03  0.119045D-03
     17  0.241610D-03  0.959561D-03 -0.579621D-02  0.109438D-03 -0.775292D-03
     18  0.120973D-02 -0.579618D-02 -0.269041D-01  0.356481D-03 -0.202426D-02
     19 -0.100292D-02 -0.322633D-02 -0.655546D-02  0.230916D-03  0.498182D-04
     20 -0.467926D-02 -0.568565D-02 -0.115097D-01  0.482956D-05  0.599005D-03
     21 -0.127367D-01 -0.167487D-01 -0.243429D-01 -0.534329D-03 -0.452820D-03
     22 -0.442280D-02  0.394722D-02  0.103300D-01  0.273751D-03 -0.158196D-03
     23  0.534294D-02 -0.260144D-02 -0.850721D-02 -0.121850D-03  0.539689D-03
     24  0.179176D-01 -0.113790D-01 -0.240073D-01  0.686896D-03 -0.242603D-03
     25  0.100341D-02 -0.796572D-04 -0.563776D-03  0.276682D-03  0.103214D-03
     26 -0.223970D-04  0.926277D-03  0.463361D-02  0.101207D-03 -0.253123D-03
     27 -0.197007D-02  0.127444D-01 -0.329613D-01  0.223328D-03 -0.113745D-02
                6             7             8             9            10 
      6  0.997805D-01
      7  0.257648D-02  0.167653D+00
      8 -0.601410D-02  0.102320D+00  0.151333D+00
      9  0.728088D-02  0.374247D-01  0.310659D-01  0.545275D-01
     10 -0.544285D-03 -0.295740D-01  0.691997D-02  0.605498D-02  0.231894D+00
     11 -0.614432D-02 -0.223954D-01  0.135237D-01  0.558648D-02 -0.740703D-01
     12  0.703032D-02 -0.810698D-02  0.333792D-02  0.483514D-02 -0.434443D-01
     13 -0.220656D-02  0.125475D-02 -0.220983D-02 -0.109678D-01 -0.838409D-03
     14  0.130428D-01 -0.182818D-02 -0.291035D-02 -0.927908D-02  0.273257D-02
     15 -0.695015D-02 -0.934431D-02 -0.790311D-02  0.891534D-03  0.114423D-01
     16  0.120244D-03 -0.308344D-03 -0.596580D-05  0.469382D-03 -0.165274D-03
     17 -0.661799D-03  0.238056D-03  0.423485D-04  0.495237D-04 -0.317290D-03
     18 -0.951103D-03  0.150770D-02  0.929533D-03 -0.165294D-02 -0.171296D-02
     19 -0.587237D-03  0.938990D-04 -0.964990D-04  0.317470D-03  0.571080D-03
     20  0.171649D-03 -0.461243D-04  0.105886D-03 -0.641686D-03  0.124653D-03
     21 -0.203216D-02  0.531804D-03 -0.460017D-03 -0.357888D-02  0.186909D-04
     22  0.526428D-03  0.587335D-03  0.873678D-04 -0.181296D-03  0.551729D-04
     23  0.363787D-03  0.175012D-03 -0.216158D-03 -0.124771D-02  0.366088D-04
     24 -0.201569D-02  0.332189D-03 -0.896446D-03 -0.157342D-02 -0.295992D-03
     25  0.174554D-03  0.245908D-03 -0.378014D-04 -0.861921D-03  0.272509D-03
     26 -0.856192D-03  0.950063D-04  0.501176D-03 -0.578633D-03 -0.167121D-03
     27 -0.340267D-02 -0.437393D-03 -0.134876D-03 -0.194933D-02  0.487331D-03
               11            12            13            14            15 
     11  0.882360D-01
     12  0.157212D-01  0.533830D-01
     13  0.309918D-02  0.134351D-01  0.426794D+00
     14 -0.113617D-02 -0.501330D-02  0.429112D-02  0.407128D+00
     15 -0.425905D-02  0.121049D-02  0.214868D-01 -0.102948D+00 -0.877646D-01
     16 -0.828831D-04 -0.438463D-03 -0.516187D-02 -0.460679D-03 -0.230660D-02
     17 -0.715784D-04 -0.111979D-03 -0.460690D-03 -0.305080D-02  0.110517D-01
     18  0.370396D-03 -0.168207D-02 -0.230666D-02  0.110517D-01  0.500774D-01
     19  0.208716D-03  0.620680D-03 -0.145828D+00 -0.885738D-01 -0.366079D-03
     20 -0.203351D-03 -0.110900D-02 -0.883894D-01 -0.114581D+00  0.748005D-02
     21 -0.949912D-03 -0.156997D-02  0.418503D-03  0.814504D-02 -0.828209D-02
     22  0.850025D-04 -0.329030D-04 -0.198277D+00  0.585145D-01 -0.463822D-02
     23  0.152859D-03 -0.701806D-03  0.583374D-01 -0.620631D-01  0.783906D-02
     24 -0.602235D-03 -0.358720D-02 -0.560111D-02  0.820357D-02 -0.835197D-02
     25 -0.393838D-04  0.103676D-02 -0.460609D-01  0.271322D-01 -0.965327D-02
     26  0.454646D-03 -0.251321D-03  0.271249D-01 -0.200106D+00  0.549072D-01
     27  0.254261D-04 -0.192941D-02 -0.947475D-02  0.538777D-01 -0.225245D-01
               16            17            18            19            20 
     16  0.492639D-02
     17 -0.305680D-03  0.632718D-02
     18 -0.153053D-02  0.733300D-02  0.415783D-01
     19 -0.106620D-02 -0.820776D-03  0.487093D-02  0.163433D+00
     20 -0.456348D-03  0.595195D-03 -0.115309D-02  0.107495D+00  0.129214D+00
     21  0.642118D-02  0.160859D-03 -0.212163D-01  0.130893D-02  0.485151D-02
     22 -0.114545D-02  0.186242D-03 -0.392292D-02 -0.209235D-01  0.282529D-02
     23 -0.163861D-03  0.822870D-03 -0.267562D-02 -0.129852D-01  0.749537D-02
     24 -0.582590D-02 -0.195534D-02 -0.213647D-01 -0.215290D-03  0.136815D-04
     25  0.104647D-02  0.112915D-02  0.152826D-02  0.449253D-02 -0.168784D-01
     26  0.111476D-02 -0.484950D-02 -0.803551D-02 -0.205065D-02 -0.175394D-01
     27  0.188093D-02 -0.100697D-01 -0.178843D-01  0.606075D-03  0.189658D-02
               21            22            23            24            25 
     21  0.528866D-01
     22 -0.140176D-03  0.227753D+00
     23 -0.848790D-04 -0.723297D-01  0.649249D-01
     24  0.425845D-02 -0.641421D-03  0.316560D-02  0.528558D-01
     25  0.471213D-02 -0.390066D-02  0.217086D-01 -0.635685D-02  0.426241D-01
     26  0.553889D-02  0.684227D-02 -0.905496D-02  0.369278D-02 -0.330380D-01
     27  0.387714D-02 -0.129951D-02  0.184877D-02  0.378600D-02  0.998411D-02
               26            27 
     26  0.229921D+00
     27 -0.590509D-01  0.729883D-01
 Leave Link  716 at Thu Dec 11 19:57:28 2025, MaxMem=   268435456 cpu:               0.0 elap:               0.0
 (Enter D:\G16W\l123.exe)
 IRC-IRC-IRC-IRC-IRC-IRC-IRC-IRC-IRC-IRC-IRC-IRC-IRC-IRC-IRC-IRC-IRC-IRC
          ******** Start new reaction path calculation ********
 Current Structure is TS -> form Hessian eigenvectors.
                            Diagonalizing Hessian.
 Supplied step size of   0.1000 bohr.
    Integration on MW PES will use step size of   0.3183 sqrt(amu)*bohr.
 Point Number:   0          Path Number:   1
 Calculating another point on the path.
 Point Number  1 in FORWARD path direction.
 Using LQA Reaction Path Following.
 IRC-IRC-IRC-IRC-IRC-IRC-IRC-IRC-IRC-IRC-IRC-IRC-IRC-IRC-IRC-IRC-IRC-IRC
 Leave Link  123 at Thu Dec 11 19:57:28 2025, MaxMem=   268435456 cpu:               0.0 elap:               0.0
 (Enter D:\G16W\l202.exe)
                          Input orientation:                          
 ---------------------------------------------------------------------
 Center     Atomic      Atomic             Coordinates (Angstroms)
 Number     Number       Type             X           Y           Z
 ---------------------------------------------------------------------
      1          7           0       -0.155404    0.744583    3.728084
      2          1           0       -0.010924   -0.109698    4.243448
      3          1           0        0.564258    1.409972    3.963909
      4          1           0       -1.060214    1.128317    3.952445
      5          6           0       -0.078172    0.374547    1.875343
      6         53           0        0.030361   -0.145467   -0.728346
      7          1           0       -0.909213   -0.321956    1.908735
      8          1           0        0.938287   -0.001635    1.921773
      9          1           0       -0.255060    1.406351    1.590821
 ---------------------------------------------------------------------
                    Distance matrix (angstroms):
                    1          2          3          4          5
     1  N    0.000000
     2  H    1.008103   0.000000
     3  H    1.008102   1.648749   0.000000
     4  H    1.008102   1.648749   1.648748   0.000000
     5  C    1.890910   2.418044   2.418043   2.418043   0.000000
     6  I    4.548238   4.972094   4.972092   4.972091   2.657328
     7  H    2.239590   2.510550   3.065034   2.510547   1.084832
     8  H    2.239589   2.510548   2.510548   3.065033   1.084831
     9  H    2.239589   3.065034   2.510547   2.510548   1.084832
                    6          7          8          9
     6  I    0.000000
     7  H    2.805021   0.000000
     8  H    2.805023   1.875108   0.000000
     9  H    2.805021   1.875109   1.875108   0.000000
 Symmetry turned off by external request.
 This structure is nearly, but not quite of a higher symmetry.
 Consider Symm=Loose if the higher symmetry is desired.
 Stoichiometry    CH6IN
 Framework group  C1[X(CH6IN)]
 Deg. of freedom    21
 Full point group                 C1      NOp   1
 Rotational constants (GHZ):          80.4335290           1.3230771           1.3230770
 Leave Link  202 at Thu Dec 11 19:57:28 2025, MaxMem=   268435456 cpu:               0.0 elap:               0.0
 (Enter D:\G16W\l301.exe)
 Standard basis: VSTO-6G (5D, 7F)
 Ernie: Thresh=  0.10000D-02 Tol=  0.10000D-05 Strict=F.
 EHB=         0.000000000 Number of Hydrogen Bonds=     0
  NNHCO=     0 NNPyr=     0 NCTC=     0               EPep=         0.000000000
    EC=        37.423371552  ECS=         1.253883267   EG=         0.218967739
   EHC=         0.000481537  EAt=       -21.558449737  AtH=         0.991250372
 EPDDG=         0.000000000  ECC=        38.896704094 EAtT=        22.549700110
  EHyb=         0.000000000
    23 basis functions,   144 primitive gaussians,    24 cartesian basis functions
    11 alpha electrons       11 beta electrons
       nuclear repulsion energy        61.4464042034 Hartrees.
 IExCor=    0 DFT=F Ex=HF Corr=None ExCW=0 ScaHFX=  1.000000
 ScaDFX=  1.000000  1.000000  1.000000  1.000000 ScalE2=  1.000000  1.000000
 IRadAn=      5 IRanWt=     -1 IRanGd=            0 ICorTp=0 IEmpDi=251
 Integral buffers will be    131072 words long.
 Regular integral format.
 Two-electron integral symmetry is turned off.
 R6Disp:  PM7 Dispersion energy=       -0.0007589647 Hartrees.
 Nuclear repulsion after empirical dispersion term =       61.4456452388 Hartrees.
 Leave Link  301 at Thu Dec 11 19:57:28 2025, MaxMem=   268435456 cpu:               0.0 elap:               0.1
 (Enter D:\G16W\l302.exe)
 Do NDO integrals.
 NPDir=0 NMtPBC=     1 NCelOv=     1 NCel=       1 NClECP=     1 NCelD=      1
         NCelK=      1 NCelE2=     1 NClLst=     1 CellRange=     0.0.
 One-electron integrals computed using PRISM.
 NBasis=    23 RedAO= F EigKep=  0.00D+00  NBF=    23
 NBsUse=    23 1.00D-04 EigRej=  0.00D+00 NBFU=    23
 Leave Link  302 at Thu Dec 11 19:57:28 2025, MaxMem=   268435456 cpu:               0.0 elap:               0.1
 (Enter D:\G16W\l303.exe)
 DipDrv:  MaxL=1.
 Leave Link  303 at Thu Dec 11 19:57:28 2025, MaxMem=   268435456 cpu:               0.0 elap:               0.0
 (Enter D:\G16W\l401.exe)
 Initial guess from the checkpoint file:  ".\Gau-25304.chk"
 B after Tr=    -0.017864    0.085587    0.428533
         Rot=    1.000000    0.000000    0.000000    0.000000 Ang=   0.00 deg.
 Guess basis will be translated and rotated to current coordinates.
 JPrj=0 DoOrth=T DoCkMO=T.
 Leave Link  401 at Thu Dec 11 19:57:28 2025, MaxMem=   268435456 cpu:               0.0 elap:               0.1
 (Enter D:\G16W\l502.exe)
 Keep J ints in memory in canonical form, NReq=1849398.
 FoFCou: FMM=F IPFlag=           0 FMFlag=           0 FMFlg1=           0
         NFxFlg=           0 DoJE=F BraDBF=F KetDBF=F FulRan=T
         wScrn=  0.000000 ICntrl=       600 IOpCl=  2 I1Cent=           0 NGrid=           0
         NMat0=    1 NMatS0=     71 NMatT0=    0 NMatD0=    1 NMtDS0=    0 NMtDT0=    0
 Symmetry not used in FoFCou.
 Two-electron integral symmetry not used.
 Closed shell SCF:
 Using DIIS extrapolation, IDIIS=  1040.
 Overlap will be assumed to be unity.
 NGot=   268435456 LenX=   268372175 LenY=   268371158
 Requested convergence on RMS density matrix=1.00D-08 within 128 cycles.
 Requested convergence on MAX density matrix=1.00D-06.
 Requested convergence on             energy=1.00D-06.
 No special actions if energy rises.

 Cycle   1  Pass 1  IDiag  1:
 E= 0.448334725728827E-01
 DIIS: error= 5.43D-03 at cycle   1 NSaved=   1.
 NSaved= 1 IEnMin= 1 EnMin= 0.448334725728827E-01 IErMin= 1 ErrMin= 5.43D-03
 ErrMax= 5.43D-03  0.00D+00 EMaxC= 1.00D-01 BMatC= 4.86D-04 BMatP= 4.86D-04
 IDIUse=3 WtCom= 9.46D-01 WtEn= 5.43D-02
 Coeff-Com:  0.100D+01
 Coeff-En:   0.100D+01
 Coeff:      0.100D+01
 GapD=    2.000 DampG=2.000 DampE=1.000 DampFc=2.0000 IDamp=-1.
 RMSDP=2.37D-03 MaxDP=1.78D-02              OVMax= 0.00D+00

 Cycle   2  Pass 1  IDiag  3:
 E= 0.428213530543005E-01 Delta-E=       -0.002012119519 Rises=F Damp=F
 DIIS: error= 2.10D-03 at cycle   2 NSaved=   2.
 NSaved= 2 IEnMin= 2 EnMin= 0.428213530543005E-01 IErMin= 2 ErrMin= 2.10D-03
 ErrMax= 2.10D-03  0.00D+00 EMaxC= 1.00D-01 BMatC= 7.04D-05 BMatP= 4.86D-04
 IDIUse=3 WtCom= 9.79D-01 WtEn= 2.10D-02
 Coeff-Com: -0.450D+00 0.145D+01
 Coeff-En:   0.000D+00 0.100D+01
 Coeff:     -0.440D+00 0.144D+01
 Gap=     0.269 Goal=   None    Shift=    0.000
 RMSDP=1.46D-03 MaxDP=1.11D-02 DE=-2.01D-03 OVMax= 1.64D-02

 Cycle   3  Pass 1  IDiag  3:
 E= 0.424054317036777E-01 Delta-E=       -0.000415921351 Rises=F Damp=F
 DIIS: error= 2.79D-04 at cycle   3 NSaved=   3.
 NSaved= 3 IEnMin= 3 EnMin= 0.424054317036777E-01 IErMin= 3 ErrMin= 2.79D-04
 ErrMax= 2.79D-04  0.00D+00 EMaxC= 1.00D-01 BMatC= 3.11D-06 BMatP= 7.04D-05
 IDIUse=3 WtCom= 9.97D-01 WtEn= 2.79D-03
 Coeff-Com:  0.206D-01-0.214D+00 0.119D+01
 Coeff-En:   0.000D+00 0.000D+00 0.100D+01
 Coeff:      0.205D-01-0.213D+00 0.119D+01
 Gap=     0.271 Goal=   None    Shift=    0.000
 RMSDP=3.38D-04 MaxDP=2.68D-03 DE=-4.16D-04 OVMax= 3.93D-03

 Cycle   4  Pass 1  IDiag  3:
 E= 0.423838792492646E-01 Delta-E=       -0.000021552454 Rises=F Damp=F
 DIIS: error= 9.80D-05 at cycle   4 NSaved=   4.
 NSaved= 4 IEnMin= 4 EnMin= 0.423838792492646E-01 IErMin= 4 ErrMin= 9.80D-05
 ErrMax= 9.80D-05  0.00D+00 EMaxC= 1.00D-01 BMatC= 2.43D-07 BMatP= 3.11D-06
 IDIUse=1 WtCom= 1.00D+00 WtEn= 0.00D+00
 Coeff-Com:  0.157D-01-0.257D-01-0.310D+00 0.132D+01
 Coeff:      0.157D-01-0.257D-01-0.310D+00 0.132D+01
 Gap=     0.271 Goal=   None    Shift=    0.000
 RMSDP=1.07D-04 MaxDP=9.17D-04 DE=-2.16D-05 OVMax= 1.29D-03

 Cycle   5  Pass 1  IDiag  3:
 E= 0.423821281184402E-01 Delta-E=       -0.000001751131 Rises=F Damp=F
 DIIS: error= 2.23D-05 at cycle   5 NSaved=   5.
 NSaved= 5 IEnMin= 5 EnMin= 0.423821281184402E-01 IErMin= 5 ErrMin= 2.23D-05
 ErrMax= 2.23D-05  0.00D+00 EMaxC= 1.00D-01 BMatC= 1.32D-08 BMatP= 2.43D-07
 IDIUse=1 WtCom= 1.00D+00 WtEn= 0.00D+00
 Coeff-Com: -0.875D-02 0.315D-01 0.152D-01-0.434D+00 0.140D+01
 Coeff:     -0.875D-02 0.315D-01 0.152D-01-0.434D+00 0.140D+01
 Gap=     0.271 Goal=   None    Shift=    0.000
 RMSDP=2.20D-05 MaxDP=1.91D-04 DE=-1.75D-06 OVMax= 2.47D-04

 Cycle   6  Pass 1  IDiag  3:
 E= 0.423820523262108E-01 Delta-E=       -0.000000075792 Rises=F Damp=F
 DIIS: error= 2.67D-06 at cycle   6 NSaved=   6.
 NSaved= 6 IEnMin= 6 EnMin= 0.423820523262108E-01 IErMin= 6 ErrMin= 2.67D-06
 ErrMax= 2.67D-06  0.00D+00 EMaxC= 1.00D-01 BMatC= 2.49D-10 BMatP= 1.32D-08
 IDIUse=1 WtCom= 1.00D+00 WtEn= 0.00D+00
 Coeff-Com:  0.231D-02-0.902D-02 0.166D-02 0.992D-01-0.409D+00 0.131D+01
 Coeff:      0.231D-02-0.902D-02 0.166D-02 0.992D-01-0.409D+00 0.131D+01
 Gap=     0.271 Goal=   None    Shift=    0.000
 RMSDP=2.74D-06 MaxDP=2.58D-05 DE=-7.58D-08 OVMax= 3.08D-05

 Cycle   7  Pass 1  IDiag  3:
 E= 0.423820509419528E-01 Delta-E=       -0.000000001384 Rises=F Damp=F
 DIIS: error= 6.91D-07 at cycle   7 NSaved=   7.
 NSaved= 7 IEnMin= 7 EnMin= 0.423820509419528E-01 IErMin= 7 ErrMin= 6.91D-07
 ErrMax= 6.91D-07  0.00D+00 EMaxC= 1.00D-01 BMatC= 1.19D-11 BMatP= 2.49D-10
 IDIUse=1 WtCom= 1.00D+00 WtEn= 0.00D+00
 Coeff-Com: -0.247D-03 0.118D-02-0.140D-02-0.808D-02 0.559D-01-0.402D+00
 Coeff-Com:  0.135D+01
 Coeff:     -0.247D-03 0.118D-02-0.140D-02-0.808D-02 0.559D-01-0.402D+00
 Coeff:      0.135D+01
 Gap=     0.271 Goal=   None    Shift=    0.000
 RMSDP=5.12D-07 MaxDP=4.84D-06 DE=-1.38D-09 OVMax= 4.37D-06

 Cycle   8  Pass 1  IDiag  3:
 E= 0.423820508873689E-01 Delta-E=       -0.000000000055 Rises=F Damp=F
 DIIS: error= 5.42D-08 at cycle   8 NSaved=   8.
 NSaved= 8 IEnMin= 8 EnMin= 0.423820508873689E-01 IErMin= 8 ErrMin= 5.42D-08
 ErrMax= 5.42D-08  0.00D+00 EMaxC= 1.00D-01 BMatC= 1.54D-13 BMatP= 1.19D-11
 IDIUse=1 WtCom= 1.00D+00 WtEn= 0.00D+00
 Coeff-Com:  0.244D-04-0.155D-03 0.254D-03 0.778D-03-0.903D-02 0.944D-01
 Coeff-Com: -0.392D+00 0.131D+01
 Coeff:      0.244D-04-0.155D-03 0.254D-03 0.778D-03-0.903D-02 0.944D-01
 Coeff:     -0.392D+00 0.131D+01
 Gap=     0.271 Goal=   None    Shift=    0.000
 RMSDP=4.59D-08 MaxDP=3.73D-07 DE=-5.46D-11 OVMax= 2.81D-07

 Cycle   9  Pass 1  IDiag  3:
 E= 0.423820508868502E-01 Delta-E=       -0.000000000001 Rises=F Damp=F
 DIIS: error= 1.72D-08 at cycle   9 NSaved=   9.
 NSaved= 9 IEnMin= 9 EnMin= 0.423820508868502E-01 IErMin= 9 ErrMin= 1.72D-08
 ErrMax= 1.72D-08  0.00D+00 EMaxC= 1.00D-01 BMatC= 8.12D-15 BMatP= 1.54D-13
 IDIUse=1 WtCom= 1.00D+00 WtEn= 0.00D+00
 Coeff-Com: -0.582D-05 0.370D-04-0.609D-04-0.174D-03 0.216D-02-0.235D-01
 Coeff-Com:  0.102D+00-0.457D+00 0.138D+01
 Coeff:     -0.582D-05 0.370D-04-0.609D-04-0.174D-03 0.216D-02-0.235D-01
 Coeff:      0.102D+00-0.457D+00 0.138D+01
 Gap=     0.271 Goal=   None    Shift=    0.000
 RMSDP=1.15D-08 MaxDP=8.58D-08 DE=-5.19D-13 OVMax= 8.08D-08

 Cycle  10  Pass 1  IDiag  3:
 E= 0.423820508869284E-01 Delta-E=        0.000000000000 Rises=F Damp=F
 DIIS: error= 5.10D-09 at cycle  10 NSaved=  10.
 NSaved=10 IEnMin= 9 EnMin= 0.423820508868502E-01 IErMin=10 ErrMin= 5.10D-09
 ErrMax= 5.10D-09  0.00D+00 EMaxC= 1.00D-01 BMatC= 6.20D-16 BMatP= 8.12D-15
 IDIUse=1 WtCom= 1.00D+00 WtEn= 0.00D+00
 Coeff-Com:  0.270D-06-0.234D-05 0.641D-05 0.520D-06-0.157D-03 0.247D-02
 Coeff-Com: -0.120D-01 0.803D-01-0.540D+00 0.147D+01
 Coeff:      0.270D-06-0.234D-05 0.641D-05 0.520D-06-0.157D-03 0.247D-02
 Coeff:     -0.120D-01 0.803D-01-0.540D+00 0.147D+01
 Gap=     0.271 Goal=   None    Shift=    0.000
 RMSDP=3.97D-09 MaxDP=3.44D-08 DE= 7.82D-14 OVMax= 3.42D-08

 Cycle  11  Pass 2  IDiag  1:
 SCF Done:  E(RPM7) =  0.423820508869E-01 A.U. after   11 cycles
            NFock= 10  Conv=0.40D-08     -V/T= 1.0012
 KE=-3.638958269727D+01 PE=-7.239509014779D+01 EE= 4.738140965716D+01
 Leave Link  502 at Thu Dec 11 19:57:29 2025, MaxMem=   268435456 cpu:               0.0 elap:               0.4
 (Enter D:\G16W\l801.exe)
 Range of M.O.s used for correlation:     1    23
 NBasis=    23 NAE=    11 NBE=    11 NFC=     0 NFV=     0
 NROrb=     23 NOA=    11 NOB=    11 NVA=    12 NVB=    12
 Leave Link  801 at Thu Dec 11 19:57:29 2025, MaxMem=   268435456 cpu:               0.0 elap:               0.1
 (Enter D:\G16W\l1101.exe)
 Using compressed storage, NAtomX=     9.
 Will process     10 centers per pass.
 R6Disp: Adding PM7 dispersion energy 1st derivatives to the gradient.
 Leave Link 1101 at Thu Dec 11 19:57:29 2025, MaxMem=   268435456 cpu:               0.0 elap:               0.1
 (Enter D:\G16W\l1102.exe)
 Symmetrizing basis deriv contribution to polar:
 IMax=3 JMax=2 DiffMx= 0.00D+00
 Leave Link 1102 at Thu Dec 11 19:57:29 2025, MaxMem=   268435456 cpu:               0.0 elap:               0.0
 (Enter D:\G16W\l1110.exe)
 Forming Gx(P) for the SCF density, NAtomX=     9.
 Integral derivatives from FoFJK, PRISM(SPDF).
 Do as many integral derivatives as possible in FoFJK.
 G2DrvN: MDV=     268375814.
 G2DrvN: will do    10 centers at a time, making    1 passes.
 Calling FoFCou, ICntrl=  3107 FMM=F I1Cent=   0 AccDes= 0.00D+00.
 FoFJK:  IHMeth=43 ICntrl=    3107 DoSepK=F KAlg= 0 I1Cent=           0 FoldK=F
 IRaf=         0 NMat=       1 IRICut=       1 DoRegI=T DoRafI=F ISym2E= 0 IDoP0=3 IntGTp=3.
 FoFCou: FMM=F IPFlag=           0 FMFlag=      100000 FMFlg1=           0
         NFxFlg=           0 DoJE=F BraDBF=F KetDBF=F FulRan=T
         wScrn=  0.000000 ICntrl=      3107 IOpCl=  0 I1Cent=           0 NGrid=           0
         NMat0=    1 NMatS0=      1 NMatT0=    0 NMatD0=    1 NMtDS0=    0 NMtDT0=    0
 Symmetry not used in FoFCou.
 End of G2Drv F.D. properties file   721 does not exist.
 End of G2Drv F.D. properties file   722 does not exist.
 End of G2Drv F.D. properties file   788 does not exist.
 Leave Link 1110 at Thu Dec 11 19:57:29 2025, MaxMem=   268435456 cpu:               0.0 elap:               0.1
 (Enter D:\G16W\l1002.exe)
 Minotr:  Closed shell wavefunction.
          IDoAtm=111111111
          Direct CPHF calculation.
          Differentiating once with respect to nuclear coordinates.
          Electric field/nuclear overlap derivatives assumed to be zero.
          Requested convergence is 1.0D-08 RMS, and 1.0D-07 maximum.
          NewPWx=T KeepS1=F KeepF1=F KeepIn=T MapXYZ=F SortEE=F KeepMc=T.
 Keep J ints in memory in canonical form, NReq=1850362.
 FoFCou: FMM=F IPFlag=           0 FMFlag=           0 FMFlg1=           0
         NFxFlg=           0 DoJE=F BraDBF=F KetDBF=F FulRan=T
         wScrn=  0.000000 ICntrl=       600 IOpCl=  2 I1Cent=           0 NGrid=           0
         NMat0=    1 NMatS0=     71 NMatT0=    0 NMatD0=    1 NMtDS0=    0 NMtDT0=    0
 Symmetry not used in FoFCou.
 Two-electron integral symmetry not used.
          MDV=     268435456 using IRadAn=       1.
          Solving linear equations separately, MaxMat=       0.
          There are    30 degrees of freedom in the 1st order CPHF.  IDoFFX=5 NUNeed=    30.
 LinEq1:  Iter=  0 NonCon=    27 RMS=3.29D-02 Max=2.53D-01 NDo=    27
 AX will form    30 AO Fock derivatives at one time.
 LinEq1:  Iter=  1 NonCon=    27 RMS=2.62D-03 Max=1.53D-02 NDo=    30
 LinEq1:  Iter=  2 NonCon=    27 RMS=3.54D-04 Max=1.67D-03 NDo=    30
 LinEq1:  Iter=  3 NonCon=    27 RMS=8.26D-05 Max=5.17D-04 NDo=    30
 LinEq1:  Iter=  4 NonCon=    27 RMS=1.32D-05 Max=6.56D-05 NDo=    30
 LinEq1:  Iter=  5 NonCon=    27 RMS=1.86D-06 Max=1.41D-05 NDo=    30
 LinEq1:  Iter=  6 NonCon=    27 RMS=3.33D-07 Max=1.73D-06 NDo=    30
 LinEq1:  Iter=  7 NonCon=    16 RMS=4.93D-08 Max=1.87D-07 NDo=    30
 LinEq1:  Iter=  8 NonCon=     0 RMS=5.55D-09 Max=2.57D-08 NDo=    30
 Linear equations converged to 1.000D-08 1.000D-07 after     8 iterations.
 End of Minotr F.D. properties file   721 does not exist.
 End of Minotr F.D. properties file   722 does not exist.
 End of Minotr F.D. properties file   788 does not exist.
 Leave Link 1002 at Thu Dec 11 19:57:30 2025, MaxMem=   268435456 cpu:               1.0 elap:               0.1
 (Enter D:\G16W\l701.exe)
 ... and contract with generalized density number  0.
 Compute integral second derivatives.
 R6Disp: Adding PM7 dispersion energy 2nd derivatives to the Hessian.
 Leave Link  701 at Thu Dec 11 19:57:30 2025, MaxMem=   268435456 cpu:               0.0 elap:               0.1
 (Enter D:\G16W\l702.exe)
 L702 exits ... SP integral derivatives will be done elsewhere.
 Leave Link  702 at Thu Dec 11 19:57:30 2025, MaxMem=   268435456 cpu:               0.0 elap:               0.0
 (Enter D:\G16W\l703.exe)
 Integral derivatives from FoFJK, PRISM(SPDF).
 Compute integral second derivatives, UseDBF=F ICtDFT=           0.
 Calling FoFJK, ICntrl=    100127 FMM=F ISym2X=0 I1Cent= 0 IOpClX= 0 NMat=1 NMatS=1 NMatT=0.
 FoFJK:  IHMeth=43 ICntrl=  100127 DoSepK=F KAlg= 0 I1Cent=           0 FoldK=F
 IRaf=         0 NMat=       1 IRICut=       1 DoRegI=T DoRafI=F ISym2E= 0 IDoP0=3 IntGTp=3.
 FoFCou: FMM=F IPFlag=           0 FMFlag=      100000 FMFlg1=         800
         NFxFlg=           0 DoJE=F BraDBF=F KetDBF=F FulRan=T
         wScrn=  0.000000 ICntrl=    100127 IOpCl=  0 I1Cent=           0 NGrid=           0
         NMat0=    1 NMatS0=      1 NMatT0=    0 NMatD0=    1 NMtDS0=    0 NMtDT0=    0
 Symmetry not used in FoFCou.
 Leave Link  703 at Thu Dec 11 19:57:30 2025, MaxMem=   268435456 cpu:               0.0 elap:               0.1
 (Enter D:\G16W\l716.exe)
 Dipole        =-2.00661581D-01 9.68143906D-01 4.84389301D+00
 Polarizability= 0.00000000D+00 0.00000000D+00 0.00000000D+00
                 0.00000000D+00 0.00000000D+00 0.00000000D+00
 -------------------------------------------------------------------
 Center     Atomic                   Forces (Hartrees/Bohr)
 Number     Number              X              Y              Z
 -------------------------------------------------------------------
      1        7          -0.000200931    0.000960727    0.004812321
      2        1          -0.000010950    0.000047881    0.000384266
      3        1           0.000006728    0.000094040    0.000376002
      4        1          -0.000042831    0.000085330    0.000375560
      5        6           0.000508052   -0.002436261   -0.012199199
      6       53          -0.000244655    0.001172332    0.005869942
      7        1           0.000266719    0.000248082    0.000093936
      8        1          -0.000335479    0.000143442    0.000089583
      9        1           0.000053348   -0.000315571    0.000197590
 -------------------------------------------------------------------
 Cartesian Forces:  Max     0.012199199 RMS     0.002827778
 Z-matrix is all fixed cartesians, so copy forces.
 Force constants in Cartesian coordinates: 
                1             2             3             4             5 
      1  0.441290D+00
      2  0.171095D-02  0.433451D+00
      3  0.856448D-02 -0.410334D-01  0.236194D+00
      4 -0.656342D-01  0.196134D-01 -0.118969D-01  0.622433D-01
      5  0.198407D-01 -0.179601D+00  0.700373D-01 -0.265191D-01  0.214745D+00
      6 -0.174770D-01  0.102221D+00 -0.972232D-01  0.168956D-01 -0.989904D-01
      7 -0.148141D+00 -0.785902D-01 -0.248868D-01  0.685480D-02 -0.116732D-02
      8 -0.843555D-01 -0.138417D+00 -0.195848D-01 -0.245981D-01 -0.257858D-01
      9 -0.494141D-01 -0.403733D-01 -0.559012D-01  0.146458D-01  0.140850D-01
     10 -0.199902D+00  0.572600D-01  0.281903D-01 -0.475309D-02  0.848038D-02
     11  0.627981D-01 -0.877931D-01 -0.928034D-02  0.321615D-01 -0.139230D-01
     12  0.582977D-01 -0.206759D-01 -0.547640D-01 -0.186187D-01  0.839983D-02
     13 -0.247395D-01 -0.834109D-03 -0.417629D-02  0.758363D-03 -0.742448D-03
     14 -0.834106D-03 -0.209172D-01  0.200097D-01 -0.744420D-03  0.448240D-02
     15 -0.417626D-02  0.200096D-01  0.752734D-01 -0.173880D-02  0.102381D-01
     16  0.194767D-02  0.243823D-03  0.122081D-02 -0.178536D-03  0.114720D-03
     17  0.243825D-03  0.830315D-03 -0.584936D-02  0.104943D-03 -0.737451D-03
     18  0.122081D-02 -0.584931D-02 -0.272888D-01  0.354873D-03 -0.201609D-02
     19 -0.121797D-02 -0.330118D-02 -0.655442D-02  0.222902D-03  0.247283D-04
     20 -0.433485D-02 -0.543347D-02 -0.111408D-01  0.107302D-04  0.513946D-03
     21 -0.109520D-01 -0.148680D-01 -0.229037D-01 -0.510750D-03 -0.478147D-03
     22 -0.446574D-02  0.388885D-02  0.101844D-01  0.251669D-03 -0.110306D-03
     23  0.488180D-02 -0.249125D-02 -0.816964D-02 -0.105215D-03  0.469564D-03
     24  0.155824D-01 -0.102128D-01 -0.225982D-01  0.672442D-03 -0.273992D-03
     25  0.862279D-03  0.839180D-05 -0.645501D-03  0.234791D-03  0.786918D-04
     26  0.491324D-04  0.371902D-03  0.501139D-02  0.761121D-04 -0.163652D-03
     27 -0.164599D-02  0.107817D-01 -0.307895D-01  0.196546D-03 -0.100168D-02
                6             7             8             9            10 
      6  0.956822D-01
      7  0.256414D-02  0.169674D+00
      8 -0.644783D-02  0.103653D+00  0.152666D+00
      9  0.710093D-02  0.374478D-01  0.299921D-01  0.503310D-01
     10 -0.386012D-03 -0.300001D-01  0.706759D-02  0.643646D-02  0.234672D+00
     11 -0.654452D-02 -0.227185D-01  0.135849D-01  0.573442D-02 -0.748697D-01
     12  0.684593D-02 -0.851919D-02  0.335158D-02  0.458512D-02 -0.430109D-01
     13 -0.178706D-02  0.105345D-02 -0.168732D-02 -0.875187D-02 -0.682649D-03
     14  0.105167D-01 -0.163735D-02 -0.243308D-02 -0.707191D-02  0.239189D-02
     15 -0.453210D-02 -0.853952D-02 -0.689194D-02  0.208821D-02  0.103289D-01
     16  0.114360D-03 -0.283588D-03 -0.238846D-05  0.443074D-03 -0.138237D-03
     17 -0.628916D-03  0.246049D-03  0.592254D-04  0.360712D-04 -0.321434D-03
     18 -0.910395D-03  0.150018D-02  0.932030D-03 -0.160196D-02 -0.170705D-02
     19 -0.542376D-03  0.103957D-03 -0.804677D-04  0.181961D-03  0.494811D-03
     20  0.168024D-03 -0.155696D-04  0.868556D-04 -0.635283D-03  0.933002D-04
     21 -0.199444D-02  0.458089D-03 -0.401234D-03 -0.310947D-02 -0.207958D-04
     22  0.484674D-03  0.513584D-03  0.470300D-04 -0.174929D-03  0.744261D-04
     23  0.345241D-03  0.174184D-03 -0.204755D-03 -0.119695D-02  0.197475D-04
     24 -0.197885D-02  0.356159D-03 -0.849810D-03 -0.156645D-02 -0.252579D-03
     25  0.133714D-03  0.224334D-03 -0.433995D-04 -0.814128D-03  0.234345D-03
     26 -0.639334D-03  0.561154D-04  0.443910D-03 -0.570184D-03 -0.121693D-03
     27 -0.298981D-02 -0.380847D-03 -0.999792D-04 -0.192586D-02  0.421602D-03
               11            12            13            14            15 
     11  0.888065D-01
     12  0.147025D-01  0.491922D-01
     13  0.243989D-02  0.105897D-01  0.425152D+00
     14 -0.966691D-03 -0.368787D-02  0.434735D-02  0.405228D+00
     15 -0.358921D-02  0.235789D-02  0.217684D-01 -0.104297D+00 -0.961500D-01
     16 -0.827761D-04 -0.409496D-03 -0.737327D-02 -0.523134D-03 -0.261930D-02
     17 -0.574752D-04 -0.115923D-03 -0.523147D-03 -0.497593D-02  0.125500D-01
     18  0.375192D-03 -0.163061D-02 -0.261939D-02  0.125502D-01  0.553554D-01
     19  0.216944D-03  0.596444D-03 -0.147835D+00 -0.883817D-01  0.636735D-02
     20 -0.188747D-03 -0.106376D-02 -0.885608D-01 -0.113721D+00  0.133151D-01
     21 -0.913933D-03 -0.156366D-02  0.560557D-02  0.126694D-01 -0.810316D-02
     22  0.820713D-04  0.863620D-04 -0.199751D+00  0.574014D-01 -0.129682D-01
     23  0.122047D-03 -0.651575D-03  0.575734D-01 -0.615477D-01  0.110575D-01
     24 -0.523294D-03 -0.311516D-02 -0.120331D-01  0.107036D-01 -0.836137D-02
     25 -0.275889D-04  0.988093D-03 -0.465825D-01  0.279802D-01 -0.842269D-02
     26  0.415514D-03 -0.258977D-03  0.279872D-01 -0.205149D+00  0.476078D-01
     27  0.392614D-04 -0.190748D-02 -0.859600D-02  0.486074D-01 -0.179281D-01
               16            17            18            19            20 
     16  0.686068D-02
     17 -0.281882D-03  0.815239D-02
     18 -0.141137D-02  0.676205D-02  0.406588D-01
     19 -0.980621D-03 -0.856420D-03  0.476909D-02  0.165455D+00
     20 -0.262965D-03  0.752524D-03 -0.160398D-02  0.107264D+00  0.128035D+00
     21  0.729378D-02  0.535847D-03 -0.226679D-01 -0.546768D-02 -0.110298D-02
     22 -0.992402D-03  0.215520D-03 -0.365317D-02 -0.207974D-01  0.298187D-02
     23 -0.354546D-03  0.922845D-03 -0.306488D-02 -0.130270D-01  0.732006D-02
     24 -0.675229D-02 -0.189188D-02 -0.228264D-01  0.364604D-03 -0.367571D-03
     25  0.113823D-02  0.117257D-02  0.154605D-02  0.455408D-02 -0.171757D-01
     26  0.114915D-02 -0.494648D-02 -0.808511D-02 -0.185890D-02 -0.173648D-01
     27  0.212041D-02 -0.113979D-01 -0.190878D-01  0.285051D-03  0.243128D-02
               21            22            23            24            25 
     21  0.524048D-01
     22 -0.556439D-03  0.229037D+00
     23 -0.640234D-03 -0.711107D-01  0.642701D-01
     24  0.430209D-02  0.777137D-02 -0.144223D-03  0.525884D-01
     25  0.415013D-02 -0.387028D-02  0.219482D-01 -0.570901D-02  0.432047D-01
     26  0.519921D-02  0.660422D-02 -0.886087D-02  0.355987D-02 -0.339413D-01
     27  0.363545D-02 -0.117409D-02  0.246471D-02  0.355600D-02  0.877335D-02
               26            27 
     26  0.235253D+00
     27 -0.518247D-01  0.674371D-01
 Leave Link  716 at Thu Dec 11 19:57:30 2025, MaxMem=   268435456 cpu:               0.0 elap:               0.1
 (Enter D:\G16W\l123.exe)
 IRC-IRC-IRC-IRC-IRC-IRC-IRC-IRC-IRC-IRC-IRC-IRC-IRC-IRC-IRC-IRC-IRC-IRC
 Pt  1 Step number   1 out of a maximum of  20
 Using modified Bulirsch-Stoer corrector integration.
   Using distance weighted interpolants to fit PES.
 PreDWI: IReCr0= 2 IReCr1= 1 IReCr2= 1 IReCr3= 1
 Modified Bulirsch-Stoer Extrapolation Cycles:
    EPS =    0.000010000000000
    Cycle     1 NS=    48
      PEZero:  N= 2 I= 1 D=  8.29D-04 Err=  2.23D-03
    Cycle     2 NS=    64 Truncation Error =  0.002228990
      PEZero:  N= 3 I= 2 D=  8.29D-04 Err=  1.49D-03
      PEZero:  N= 3 I= 1 D=  1.66D-03 Err=  5.52D-08
    Cycle     3 NS=    96 Truncation Error =  0.000000055
 BS completed in    3 cycles and     208 integration steps.
 Maximum DWI energy   std dev =  0.000001833 at pt    48
 Maximum DWI gradient std dev =  0.040033205 at pt    41
 SUMMARY OF CORRECTOR INTEGRATION:
   Predictor End Point Energy =     0.042382
   Old End Point Energy       =     0.042382
   Corrected End Point Energy =     0.042381
   Predictor End-Start Dist.  =     0.318281
   Old End-Start Dist.        =     0.318281
   New End-Start Dist.        =     0.318267
   New End-Old End Dist.      =     0.002762
 CORRECTOR INTEGRATION CONVERGENCE:
   Recorrection delta-x convergence threshold:    0.010000
   Delta-x Convergence Met
 Point Number:   1          Path Number:   1
                    CURRENT STRUCTURE
                Cartesian Coordinates (Ang):                
 ---------------------------------------------------------------------
 Center     Atomic                     Coordinates (Angstroms)
 Number     Number                        X           Y           Z
 ---------------------------------------------------------------------
      1          7                   -0.155399    0.744555    3.727943
      2          1                   -0.010930   -0.109676    4.243773
      3          1                    0.564278    1.410062    3.964223
      4          1                   -1.060268    1.128395    3.952758
      5          6                   -0.078171    0.374541    1.875308
      6         53                    0.030361   -0.145466   -0.728339
      7          1                   -0.908691   -0.321492    1.908830
      8          1                    0.937638   -0.001374    1.921860
      9          1                   -0.254952    1.405720    1.591118
 ---------------------------------------------------------------------
   CHANGE IN THE REACTION COORDINATE =    0.31827
   NET REACTION COORDINATE UP TO THIS POINT =    0.31827
  # OF POINTS ALONG THE PATH =   1
  # OF STEPS =   1

 Calculating another point on the path.
 Point Number  2 in FORWARD path direction.
 Using LQA Reaction Path Following.
   LQA: T_Est iteration completed in    3 iterations.
 IRC-IRC-IRC-IRC-IRC-IRC-IRC-IRC-IRC-IRC-IRC-IRC-IRC-IRC-IRC-IRC-IRC-IRC
 Leave Link  123 at Thu Dec 11 19:57:30 2025, MaxMem=   268435456 cpu:               0.0 elap:               0.1
 (Enter D:\G16W\l202.exe)
                          Input orientation:                          
 ---------------------------------------------------------------------
 Center     Atomic      Atomic             Coordinates (Angstroms)
 Number     Number       Type             X           Y           Z
 ---------------------------------------------------------------------
      1          7           0       -0.156045    0.747650    3.743439
      2          1           0       -0.011776   -0.105323    4.256660
      3          1           0        0.562364    1.411591    3.977630
      4          1           0       -1.059163    1.130447    3.966187
      5          6           0       -0.076356    0.365843    1.831757
      6         53           0        0.030277   -0.145065   -0.726334
      7          1           0       -0.909365   -0.321178    1.912595
      8          1           0        0.938116   -0.000861    1.925632
      9          1           0       -0.255218    1.407111    1.594684
 ---------------------------------------------------------------------
                    Distance matrix (angstroms):
                    1          2          3          4          5
     1  N    0.000000
     2  H    1.005869   0.000000
     3  H    1.005869   1.645759   0.000000
     4  H    1.005869   1.645759   1.645759   0.000000
     5  C    1.951066   2.471098   2.471098   2.471097   0.000000
     6  I    4.561857   4.983331   4.983330   4.983329   2.610791
     7  H    2.249862   2.519306   3.071293   2.519304   1.082791
     8  H    2.249862   2.519305   2.519306   3.071293   1.082791
     9  H    2.249861   3.071293   2.519304   2.519305   1.082791
                    6          7          8          9
     6  I    0.000000
     7  H    2.806758   0.000000
     8  H    2.806759   1.875089   0.000000
     9  H    2.806757   1.875089   1.875089   0.000000
 Symmetry turned off by external request.
 This structure is nearly, but not quite of a higher symmetry.
 Consider Symm=Loose if the higher symmetry is desired.
 Stoichiometry    CH6IN
 Framework group  C1[X(CH6IN)]
 Deg. of freedom    21
 Full point group                 C1      NOp   1
 Rotational constants (GHZ):          80.5617454           1.3242813           1.3242813
 Leave Link  202 at Thu Dec 11 19:57:30 2025, MaxMem=   268435456 cpu:               0.0 elap:               0.0
 (Enter D:\G16W\l301.exe)
 Standard basis: VSTO-6G (5D, 7F)
 Ernie: Thresh=  0.10000D-02 Tol=  0.10000D-05 Strict=F.
 EHB=         0.000000000 Number of Hydrogen Bonds=     0
  NNHCO=     0 NNPyr=     0 NCTC=     0               EPep=         0.000000000
    EC=        37.316838790  ECS=         1.256303285   EG=         0.215652498
   EHC=         0.000494193  EAt=       -21.558449737  AtH=         0.991250372
 EPDDG=         0.000000000  ECC=        38.789288766 EAtT=        22.549700110
  EHyb=         0.000000000
    23 basis functions,   144 primitive gaussians,    24 cartesian basis functions
    11 alpha electrons       11 beta electrons
       nuclear repulsion energy        61.3389888758 Hartrees.
 IExCor=    0 DFT=F Ex=HF Corr=None ExCW=0 ScaHFX=  1.000000
 ScaDFX=  1.000000  1.000000  1.000000  1.000000 ScalE2=  1.000000  1.000000
 IRadAn=      5 IRanWt=     -1 IRanGd=            0 ICorTp=0 IEmpDi=251
 Integral buffers will be    131072 words long.
 Regular integral format.
 Two-electron integral symmetry is turned off.
 R6Disp:  PM7 Dispersion energy=       -0.0007581613 Hartrees.
 Nuclear repulsion after empirical dispersion term =       61.3382307145 Hartrees.
 Leave Link  301 at Thu Dec 11 19:57:30 2025, MaxMem=   268435456 cpu:               0.0 elap:               0.0
 (Enter D:\G16W\l302.exe)
 Do NDO integrals.
 NPDir=0 NMtPBC=     1 NCelOv=     1 NCel=       1 NClECP=     1 NCelD=      1
         NCelK=      1 NCelE2=     1 NClLst=     1 CellRange=     0.0.
 One-electron integrals computed using PRISM.
 NBasis=    23 RedAO= F EigKep=  0.00D+00  NBF=    23
 NBsUse=    23 1.00D-04 EigRej=  0.00D+00 NBFU=    23
 Leave Link  302 at Thu Dec 11 19:57:31 2025, MaxMem=   268435456 cpu:               1.0 elap:               0.1
 (Enter D:\G16W\l303.exe)
 DipDrv:  MaxL=1.
 Leave Link  303 at Thu Dec 11 19:57:31 2025, MaxMem=   268435456 cpu:               0.0 elap:               0.0
 (Enter D:\G16W\l401.exe)
 Initial guess from the checkpoint file:  ".\Gau-25304.chk"
 B after Tr=    -0.000005    0.000026    0.000128
         Rot=    1.000000    0.000000    0.000000    0.000000 Ang=   0.00 deg.
 Guess basis will be translated and rotated to current coordinates.
 JPrj=0 DoOrth=T DoCkMO=T.
 Leave Link  401 at Thu Dec 11 19:57:31 2025, MaxMem=   268435456 cpu:               0.0 elap:               0.1
 (Enter D:\G16W\l502.exe)
 Keep J ints in memory in canonical form, NReq=1849398.
 FoFCou: FMM=F IPFlag=           0 FMFlag=           0 FMFlg1=           0
         NFxFlg=           0 DoJE=F BraDBF=F KetDBF=F FulRan=T
         wScrn=  0.000000 ICntrl=       600 IOpCl=  2 I1Cent=           0 NGrid=           0
         NMat0=    1 NMatS0=     71 NMatT0=    0 NMatD0=    1 NMtDS0=    0 NMtDT0=    0
 Symmetry not used in FoFCou.
 Two-electron integral symmetry not used.
 Closed shell SCF:
 Using DIIS extrapolation, IDIIS=  1040.
 Overlap will be assumed to be unity.
 NGot=   268435456 LenX=   268372175 LenY=   268371158
 Requested convergence on RMS density matrix=1.00D-08 within 128 cycles.
 Requested convergence on MAX density matrix=1.00D-06.
 Requested convergence on             energy=1.00D-06.
 No special actions if energy rises.

 Cycle   1  Pass 1  IDiag  1:
 E= 0.429144298500646E-01
 DIIS: error= 5.38D-03 at cycle   1 NSaved=   1.
 NSaved= 1 IEnMin= 1 EnMin= 0.429144298500646E-01 IErMin= 1 ErrMin= 5.38D-03
 ErrMax= 5.38D-03  0.00D+00 EMaxC= 1.00D-01 BMatC= 4.64D-04 BMatP= 4.64D-04
 IDIUse=3 WtCom= 9.46D-01 WtEn= 5.38D-02
 Coeff-Com:  0.100D+01
 Coeff-En:   0.100D+01
 Coeff:      0.100D+01
 GapD=    2.000 DampG=2.000 DampE=1.000 DampFc=2.0000 IDamp=-1.
 RMSDP=2.34D-03 MaxDP=1.60D-02              OVMax= 0.00D+00

 Cycle   2  Pass 1  IDiag  3:
 E= 0.409501204046947E-01 Delta-E=       -0.001964309445 Rises=F Damp=F
 DIIS: error= 2.08D-03 at cycle   2 NSaved=   2.
 NSaved= 2 IEnMin= 2 EnMin= 0.409501204046947E-01 IErMin= 2 ErrMin= 2.08D-03
 ErrMax= 2.08D-03  0.00D+00 EMaxC= 1.00D-01 BMatC= 6.94D-05 BMatP= 4.64D-04
 IDIUse=3 WtCom= 9.79D-01 WtEn= 2.08D-02
 Coeff-Com: -0.467D+00 0.147D+01
 Coeff-En:   0.000D+00 0.100D+01
 Coeff:     -0.458D+00 0.146D+01
 Gap=     0.278 Goal=   None    Shift=    0.000
 RMSDP=1.46D-03 MaxDP=1.08D-02 DE=-1.96D-03 OVMax= 1.67D-02

 Cycle   3  Pass 1  IDiag  3:
 E= 0.405364824352219E-01 Delta-E=       -0.000413637969 Rises=F Damp=F
 DIIS: error= 2.64D-04 at cycle   3 NSaved=   3.
 NSaved= 3 IEnMin= 3 EnMin= 0.405364824352219E-01 IErMin= 3 ErrMin= 2.64D-04
 ErrMax= 2.64D-04  0.00D+00 EMaxC= 1.00D-01 BMatC= 2.86D-06 BMatP= 6.94D-05
 IDIUse=3 WtCom= 9.97D-01 WtEn= 2.64D-03
 Coeff-Com:  0.467D-02-0.158D+00 0.115D+01
 Coeff-En:   0.000D+00 0.000D+00 0.100D+01
 Coeff:      0.466D-02-0.158D+00 0.115D+01
 Gap=     0.279 Goal=   None    Shift=    0.000
 RMSDP=3.16D-04 MaxDP=2.60D-03 DE=-4.14D-04 OVMax= 3.75D-03

 Cycle   4  Pass 1  IDiag  3:
 E= 0.405171760634957E-01 Delta-E=       -0.000019306372 Rises=F Damp=F
 DIIS: error= 9.45D-05 at cycle   4 NSaved=   4.
 NSaved= 4 IEnMin= 4 EnMin= 0.405171760634957E-01 IErMin= 4 ErrMin= 9.45D-05
 ErrMax= 9.45D-05  0.00D+00 EMaxC= 1.00D-01 BMatC= 2.27D-07 BMatP= 2.86D-06
 IDIUse=1 WtCom= 1.00D+00 WtEn= 0.00D+00
 Coeff-Com:  0.175D-01-0.313D-01-0.318D+00 0.133D+01
 Coeff:      0.175D-01-0.313D-01-0.318D+00 0.133D+01
 Gap=     0.279 Goal=   None    Shift=    0.000
 RMSDP=1.04D-04 MaxDP=9.61D-04 DE=-1.93D-05 OVMax= 1.29D-03

 Cycle   5  Pass 1  IDiag  3:
 E= 0.405155445131200E-01 Delta-E=       -0.000001631550 Rises=F Damp=F
 DIIS: error= 2.18D-05 at cycle   5 NSaved=   5.
 NSaved= 5 IEnMin= 5 EnMin= 0.405155445131200E-01 IErMin= 5 ErrMin= 2.18D-05
 ErrMax= 2.18D-05  0.00D+00 EMaxC= 1.00D-01 BMatC= 1.15D-08 BMatP= 2.27D-07
 IDIUse=1 WtCom= 1.00D+00 WtEn= 0.00D+00
 Coeff-Com: -0.868D-02 0.300D-01 0.232D-01-0.433D+00 0.139D+01
 Coeff:     -0.868D-02 0.300D-01 0.232D-01-0.433D+00 0.139D+01
 Gap=     0.279 Goal=   None    Shift=    0.000
 RMSDP=2.00D-05 MaxDP=1.92D-04 DE=-1.63D-06 OVMax= 2.31D-04

 Cycle   6  Pass 1  IDiag  3:
 E= 0.405154808547721E-01 Delta-E=       -0.000000063658 Rises=F Damp=F
 DIIS: error= 2.99D-06 at cycle   6 NSaved=   6.
 NSaved= 6 IEnMin= 6 EnMin= 0.405154808547721E-01 IErMin= 6 ErrMin= 2.99D-06
 ErrMax= 2.99D-06  0.00D+00 EMaxC= 1.00D-01 BMatC= 2.57D-10 BMatP= 1.15D-08
 IDIUse=1 WtCom= 1.00D+00 WtEn= 0.00D+00
 Coeff-Com:  0.249D-02-0.936D-02-0.110D-02 0.112D+00-0.454D+00 0.135D+01
 Coeff:      0.249D-02-0.936D-02-0.110D-02 0.112D+00-0.454D+00 0.135D+01
 Gap=     0.279 Goal=   None    Shift=    0.000
 RMSDP=2.82D-06 MaxDP=3.01D-05 DE=-6.37D-08 OVMax= 3.00D-05

 Cycle   7  Pass 1  IDiag  3:
 E= 0.405154793867766E-01 Delta-E=       -0.000000001468 Rises=F Damp=F
 DIIS: error= 7.23D-07 at cycle   7 NSaved=   7.
 NSaved= 7 IEnMin= 7 EnMin= 0.405154793867766E-01 IErMin= 7 ErrMin= 7.23D-07
 ErrMax= 7.23D-07  0.00D+00 EMaxC= 1.00D-01 BMatC= 1.40D-11 BMatP= 2.57D-10
 IDIUse=1 WtCom= 1.00D+00 WtEn= 0.00D+00
 Coeff-Com: -0.282D-03 0.130D-02-0.139D-02-0.941D-02 0.649D-01-0.427D+00
 Coeff-Com:  0.137D+01
 Coeff:     -0.282D-03 0.130D-02-0.139D-02-0.941D-02 0.649D-01-0.427D+00
 Coeff:      0.137D+01
 Gap=     0.279 Goal=   None    Shift=    0.000
 RMSDP=5.64D-07 MaxDP=5.62D-06 DE=-1.47D-09 OVMax= 5.31D-06

 Cycle   8  Pass 1  IDiag  3:
 E= 0.405154793197866E-01 Delta-E=       -0.000000000067 Rises=F Damp=F
 DIIS: error= 1.32D-07 at cycle   8 NSaved=   8.
 NSaved= 8 IEnMin= 8 EnMin= 0.405154793197866E-01 IErMin= 8 ErrMin= 1.32D-07
 ErrMax= 1.32D-07  0.00D+00 EMaxC= 1.00D-01 BMatC= 3.35D-13 BMatP= 1.40D-11
 IDIUse=1 WtCom= 1.00D+00 WtEn= 0.00D+00
 Coeff-Com:  0.415D-04-0.232D-03 0.279D-03 0.154D-02-0.139D-01 0.122D+00
 Coeff-Com: -0.485D+00 0.138D+01
 Coeff:      0.415D-04-0.232D-03 0.279D-03 0.154D-02-0.139D-01 0.122D+00
 Coeff:     -0.485D+00 0.138D+01
 Gap=     0.279 Goal=   None    Shift=    0.000
 RMSDP=7.02D-08 MaxDP=6.07D-07 DE=-6.70D-11 OVMax= 4.00D-07

 Cycle   9  Pass 1  IDiag  3:
 E= 0.405154793184650E-01 Delta-E=       -0.000000000001 Rises=F Damp=F
 DIIS: error= 3.94D-08 at cycle   9 NSaved=   9.
 NSaved= 9 IEnMin= 9 EnMin= 0.405154793184650E-01 IErMin= 9 ErrMin= 3.94D-08
 ErrMax= 3.94D-08  0.00D+00 EMaxC= 1.00D-01 BMatC= 2.36D-14 BMatP= 3.35D-13
 IDIUse=1 WtCom= 1.00D+00 WtEn= 0.00D+00
 Coeff-Com: -0.954D-05 0.549D-04-0.489D-04-0.402D-03 0.357D-02-0.335D-01
 Coeff-Com:  0.145D+00-0.629D+00 0.151D+01
 Coeff:     -0.954D-05 0.549D-04-0.489D-04-0.402D-03 0.357D-02-0.335D-01
 Coeff:      0.145D+00-0.629D+00 0.151D+01
 Gap=     0.279 Goal=   None    Shift=    0.000
 RMSDP=2.26D-08 MaxDP=2.38D-07 DE=-1.32D-12 OVMax= 1.66D-07

 Cycle  10  Pass 1  IDiag  3:
 E= 0.405154793183868E-01 Delta-E=        0.000000000000 Rises=F Damp=F
 DIIS: error= 4.59D-09 at cycle  10 NSaved=  10.
 NSaved=10 IEnMin=10 EnMin= 0.405154793183868E-01 IErMin=10 ErrMin= 4.59D-09
 ErrMax= 4.59D-09  0.00D+00 EMaxC= 1.00D-01 BMatC= 5.41D-16 BMatP= 2.36D-14
 IDIUse=1 WtCom= 1.00D+00 WtEn= 0.00D+00
 Coeff-Com:  0.532D-06-0.431D-05 0.112D-04-0.160D-05-0.246D-03 0.344D-02
 Coeff-Com: -0.174D-01 0.103D+00-0.389D+00 0.130D+01
 Coeff:      0.532D-06-0.431D-05 0.112D-04-0.160D-05-0.246D-03 0.344D-02
 Coeff:     -0.174D-01 0.103D+00-0.389D+00 0.130D+01
 Gap=     0.279 Goal=   None    Shift=    0.000
 RMSDP=3.41D-09 MaxDP=3.20D-08 DE=-7.82D-14 OVMax= 2.40D-08

 Cycle  11  Pass 2  IDiag  1:
 SCF Done:  E(RPM7) =  0.405154793184E-01 A.U. after   11 cycles
            NFock= 10  Conv=0.34D-08     -V/T= 1.0011
 KE=-3.636663180188D+01 PE=-7.229870089708D+01 EE= 4.736761746376D+01
 Leave Link  502 at Thu Dec 11 19:57:31 2025, MaxMem=   268435456 cpu:               0.0 elap:               0.5
 (Enter D:\G16W\l801.exe)
 Range of M.O.s used for correlation:     1    23
 NBasis=    23 NAE=    11 NBE=    11 NFC=     0 NFV=     0
 NROrb=     23 NOA=    11 NOB=    11 NVA=    12 NVB=    12
 Leave Link  801 at Thu Dec 11 19:57:31 2025, MaxMem=   268435456 cpu:               0.0 elap:               0.0
 (Enter D:\G16W\l1101.exe)
 Using compressed storage, NAtomX=     9.
 Will process     10 centers per pass.
 R6Disp: Adding PM7 dispersion energy 1st derivatives to the gradient.
 Leave Link 1101 at Thu Dec 11 19:57:32 2025, MaxMem=   268435456 cpu:               0.0 elap:               0.1
 (Enter D:\G16W\l1102.exe)
 Symmetrizing basis deriv contribution to polar:
 IMax=3 JMax=2 DiffMx= 0.00D+00
 Leave Link 1102 at Thu Dec 11 19:57:32 2025, MaxMem=   268435456 cpu:               0.0 elap:               0.0
 (Enter D:\G16W\l1110.exe)
 Forming Gx(P) for the SCF density, NAtomX=     9.
 Integral derivatives from FoFJK, PRISM(SPDF).
 Do as many integral derivatives as possible in FoFJK.
 G2DrvN: MDV=     268375814.
 G2DrvN: will do    10 centers at a time, making    1 passes.
 Calling FoFCou, ICntrl=  3107 FMM=F I1Cent=   0 AccDes= 0.00D+00.
 FoFJK:  IHMeth=43 ICntrl=    3107 DoSepK=F KAlg= 0 I1Cent=           0 FoldK=F
[...]
 Guess basis will be translated and rotated to current coordinates.
 JPrj=0 DoOrth=T DoCkMO=T.
 Leave Link  401 at Thu Dec 11 19:59:04 2025, MaxMem=   268435456 cpu:               0.0 elap:               0.1
 (Enter D:\G16W\l502.exe)
 Keep J ints in memory in canonical form, NReq=1849398.
 FoFCou: FMM=F IPFlag=           0 FMFlag=           0 FMFlg1=           0
         NFxFlg=           0 DoJE=F BraDBF=F KetDBF=F FulRan=T
         wScrn=  0.000000 ICntrl=       600 IOpCl=  2 I1Cent=           0 NGrid=           0
         NMat0=    1 NMatS0=     71 NMatT0=    0 NMatD0=    1 NMtDS0=    0 NMtDT0=    0
 Symmetry not used in FoFCou.
 Two-electron integral symmetry not used.
 Closed shell SCF:
 Using DIIS extrapolation, IDIIS=  1040.
 Overlap will be assumed to be unity.
 NGot=   268435456 LenX=   268372175 LenY=   268371158
 Requested convergence on RMS density matrix=1.00D-08 within 128 cycles.
 Requested convergence on MAX density matrix=1.00D-06.
 Requested convergence on             energy=1.00D-06.
 No special actions if energy rises.

 Cycle   1  Pass 1  IDiag  1:
 E= 0.308664479482346E-01
 DIIS: error= 4.21D-06 at cycle   1 NSaved=   1.
 NSaved= 1 IEnMin= 1 EnMin= 0.308664479482346E-01 IErMin= 1 ErrMin= 4.21D-06
 ErrMax= 4.21D-06  0.00D+00 EMaxC= 1.00D-01 BMatC= 2.60D-10 BMatP= 2.60D-10
 IDIUse=1 WtCom= 1.00D+00 WtEn= 0.00D+00
 Coeff-Com:  0.100D+01
 Coeff:      0.100D+01
 RMSDP=6.83D-07 MaxDP=8.32D-06              OVMax= 0.00D+00

 Cycle   2  Pass 1  IDiag  3:
 E= 0.308664475160185E-01 Delta-E=       -0.000000000432 Rises=F Damp=F
 DIIS: error= 9.17D-07 at cycle   2 NSaved=   2.
 NSaved= 2 IEnMin= 2 EnMin= 0.308664475160185E-01 IErMin= 2 ErrMin= 9.17D-07
 ErrMax= 9.17D-07  0.00D+00 EMaxC= 1.00D-01 BMatC= 1.56D-11 BMatP= 2.60D-10
 IDIUse=1 WtCom= 1.00D+00 WtEn= 0.00D+00
 Coeff-Com: -0.269D+00 0.127D+01
 Coeff:     -0.269D+00 0.127D+01
 Gap=     0.214 Goal=   None    Shift=    0.000
 RMSDP=2.58D-07 MaxDP=2.41D-06 DE=-4.32D-10 OVMax= 2.25D-06

 Cycle   3  Pass 1  IDiag  3:
 E= 0.308664474783313E-01 Delta-E=       -0.000000000038 Rises=F Damp=F
 DIIS: error= 1.93D-07 at cycle   3 NSaved=   3.
 NSaved= 3 IEnMin= 3 EnMin= 0.308664474783313E-01 IErMin= 3 ErrMin= 1.93D-07
 ErrMax= 1.93D-07  0.00D+00 EMaxC= 1.00D-01 BMatC= 7.47D-13 BMatP= 1.56D-11
 IDIUse=1 WtCom= 1.00D+00 WtEn= 0.00D+00
 Coeff-Com:  0.131D+00-0.757D+00 0.163D+01
 Coeff:      0.131D+00-0.757D+00 0.163D+01
 Gap=     0.214 Goal=   None    Shift=    0.000
 RMSDP=1.08D-07 MaxDP=1.00D-06 DE=-3.77D-11 OVMax= 8.01D-07

 Cycle   4  Pass 1  IDiag  3:
 E= 0.308664474752192E-01 Delta-E=       -0.000000000003 Rises=F Damp=F
 DIIS: error= 2.12D-08 at cycle   4 NSaved=   4.
 NSaved= 4 IEnMin= 4 EnMin= 0.308664474752192E-01 IErMin= 4 ErrMin= 2.12D-08
 ErrMax= 2.12D-08  0.00D+00 EMaxC= 1.00D-01 BMatC= 1.41D-14 BMatP= 7.47D-13
 IDIUse=1 WtCom= 1.00D+00 WtEn= 0.00D+00
 Coeff-Com: -0.600D-01 0.347D+00-0.787D+00 0.150D+01
 Coeff:     -0.600D-01 0.347D+00-0.787D+00 0.150D+01
 Gap=     0.214 Goal=   None    Shift=    0.000
 RMSDP=1.67D-08 MaxDP=1.16D-07 DE=-3.11D-12 OVMax= 1.10D-07

 Cycle   5  Pass 1  IDiag  3:
 E= 0.308664474751197E-01 Delta-E=        0.000000000000 Rises=F Damp=F
 DIIS: error= 6.80D-09 at cycle   5 NSaved=   5.
 NSaved= 5 IEnMin= 5 EnMin= 0.308664474751197E-01 IErMin= 5 ErrMin= 6.80D-09
 ErrMax= 6.80D-09  0.00D+00 EMaxC= 1.00D-01 BMatC= 1.12D-15 BMatP= 1.41D-14
 IDIUse=1 WtCom= 1.00D+00 WtEn= 0.00D+00
 Coeff-Com:  0.975D-02-0.566D-01 0.135D+00-0.506D+00 0.142D+01
 Coeff:      0.975D-02-0.566D-01 0.135D+00-0.506D+00 0.142D+01
 Gap=     0.214 Goal=   None    Shift=    0.000
 RMSDP=5.33D-09 MaxDP=4.23D-08 DE=-9.95D-14 OVMax= 4.16D-08

 Cycle   6  Pass 2  IDiag  1:
 SCF Done:  E(RPM7) =  0.308664474751E-01 A.U. after    6 cycles
            NFock=  5  Conv=0.53D-08     -V/T= 1.0008
 KE=-3.665999509302D+01 PE=-7.138090376551D+01 EE= 4.670741258834D+01
 Leave Link  502 at Thu Dec 11 19:59:04 2025, MaxMem=   268435456 cpu:               0.0 elap:               0.3
 (Enter D:\G16W\l801.exe)
 Range of M.O.s used for correlation:     1    23
 NBasis=    23 NAE=    11 NBE=    11 NFC=     0 NFV=     0
 NROrb=     23 NOA=    11 NOB=    11 NVA=    12 NVB=    12
 Leave Link  801 at Thu Dec 11 19:59:04 2025, MaxMem=   268435456 cpu:               0.0 elap:               0.0
 (Enter D:\G16W\l1101.exe)
 Leave Link 1101 at Thu Dec 11 19:59:05 2025, MaxMem=   268435456 cpu:               1.0 elap:               0.0
 (Enter D:\G16W\l1102.exe)
 Symmetrizing basis deriv contribution to polar:
 IMax=3 JMax=2 DiffMx= 0.00D+00
 Leave Link 1102 at Thu Dec 11 19:59:05 2025, MaxMem=   268435456 cpu:               0.0 elap:               0.1
 (Enter D:\G16W\l1110.exe)
 Leave Link 1110 at Thu Dec 11 19:59:05 2025, MaxMem=   268435456 cpu:               0.0 elap:               0.1
 (Enter D:\G16W\l1002.exe)
 Minotr:  Closed shell wavefunction.
 Leave Link 1002 at Thu Dec 11 19:59:05 2025, MaxMem=   268435456 cpu:               0.0 elap:               0.1
 (Enter D:\G16W\l701.exe)
 ... and contract with generalized density number  0.
 Compute integral first derivatives.
 R6Disp: Adding PM7 dispersion energy 1st derivatives to the gradient.
 Leave Link  701 at Thu Dec 11 19:59:05 2025, MaxMem=   268435456 cpu:               0.0 elap:               0.1
 (Enter D:\G16W\l702.exe)
 L702 exits ... SP integral derivatives will be done elsewhere.
 Leave Link  702 at Thu Dec 11 19:59:05 2025, MaxMem=   268435456 cpu:               0.0 elap:               0.1
 (Enter D:\G16W\l703.exe)
 Integral derivatives from FoFJK, PRISM(SPDF).
 Compute integral first derivatives, UseDBF=F ICtDFT=           0.
 Calling FoFJK, ICntrl=      2127 FMM=F ISym2X=0 I1Cent= 0 IOpClX= 0 NMat=1 NMatS=1 NMatT=0.
 FoFJK:  IHMeth=43 ICntrl=    2127 DoSepK=F KAlg= 0 I1Cent=           0 FoldK=F
 IRaf=         0 NMat=       1 IRICut=       1 DoRegI=T DoRafI=F ISym2E= 0 IDoP0=3 IntGTp=3.
 FoFCou: FMM=F IPFlag=           0 FMFlag=      100000 FMFlg1=         800
         NFxFlg=           0 DoJE=F BraDBF=F KetDBF=F FulRan=T
         wScrn=  0.000000 ICntrl=      2127 IOpCl=  0 I1Cent=           0 NGrid=           0
         NMat0=    1 NMatS0=      1 NMatT0=    0 NMatD0=    1 NMtDS0=    0 NMtDT0=    0
 Symmetry not used in FoFCou.
 Leave Link  703 at Thu Dec 11 19:59:06 2025, MaxMem=   268435456 cpu:               1.0 elap:               0.1
 (Enter D:\G16W\l716.exe)
 Dipole        =-3.32900017D-01 1.59884897D+00 7.98276424D+00
 Polarizability= 0.00000000D+00 0.00000000D+00 0.00000000D+00
                 0.00000000D+00 0.00000000D+00 0.00000000D+00
 -------------------------------------------------------------------
 Center     Atomic                   Forces (Hartrees/Bohr)
 Number     Number              X              Y              Z
 -------------------------------------------------------------------
      1        7          -0.000000959    0.000004597    0.000023021
      2        1          -0.000001303    0.000007659   -0.000003564
      3        1          -0.000006333   -0.000005630   -0.000001119
      4        1           0.000007873   -0.000003168   -0.000001019
      5        6          -0.000000624    0.000002985    0.000014942
      6       53           0.000001543   -0.000007392   -0.000037012
      7        1           0.000000935    0.000001137    0.000001462
      8        1          -0.000001284    0.000000752    0.000001446
      9        1           0.000000150   -0.000000940    0.000001843
 -------------------------------------------------------------------
 Cartesian Forces:  Max     0.000037012 RMS     0.000009513
 Z-matrix is all fixed cartesians, so copy forces.
 Leave Link  716 at Thu Dec 11 19:59:06 2025, MaxMem=   268435456 cpu:               0.0 elap:               0.1
 (Enter D:\G16W\l123.exe)
 IRC-IRC-IRC-IRC-IRC-IRC-IRC-IRC-IRC-IRC-IRC-IRC-IRC-IRC-IRC-IRC-IRC-IRC
 Error in corrector energy =           0.0000000000
 Magnitude of corrector gradient =     0.0000494410
 Magnitude of analytic gradient =      0.0000494323
 Magnitude of difference =             0.0000000166
 Angle between gradients (degrees)=    0.0163
 Pt 29 Step number   7 out of a maximum of  20
 Using modified Bulirsch-Stoer corrector integration.
   Using distance weighted interpolants to fit PES.
 PreDWI: IReCr0= 2 IReCr1= 1 IReCr2= 1 IReCr3= 1
 Modified Bulirsch-Stoer Extrapolation Cycles:
    EPS =    0.000010000000000
    Cycle     1 NS=    48
      PEZero:  N= 2 I= 1 D=  9.76D-04 Err=  1.48D-02
    Cycle     2 NS=    64 Truncation Error =  0.014847251
      PEZero:  N= 3 I= 2 D=  9.76D-04 Err=  2.06D-02
      PEZero:  N= 3 I= 1 D=  1.95D-03 Err=  1.61D-02
    Cycle     3 NS=    96 Truncation Error =  0.016071741
      PEZero:  N= 4 I= 3 D=  4.88D-04 Err=  2.84D-02
      PEZero:  N= 4 I= 2 D=  1.46D-03 Err=  1.73D-02
      PEZero:  N= 4 I= 1 D=  2.44D-03 Err=  1.11D-02
    Cycle     4 NS=   128 Truncation Error =  0.011086178
      PEZero:  N= 5 I= 4 D=  4.88D-04 Err=  3.15D-02
      PEZero:  N= 5 I= 3 D=  9.76D-04 Err=  1.89D-02
      PEZero:  N= 5 I= 2 D=  1.95D-03 Err=  1.02D-02
      PEZero:  N= 5 I= 1 D=  2.93D-03 Err=  6.55D-03
    Cycle     5 NS=   192 Truncation Error =  0.006550264
      PEZero:  N= 6 I= 5 D=  2.44D-04 Err=  2.68D-02
      PEZero:  N= 6 I= 4 D=  7.32D-04 Err=  4.25D-03
      PEZero:  N= 6 I= 3 D=  1.22D-03 Err=  6.26D-03
    Cycle     6 NS=   256 Truncation Error =  0.004248929
      PEZero:  N= 7 I= 6 D=  2.44D-04 Err=  1.56D-02
      PEZero:  N= 7 I= 5 D=  4.88D-04 Err=  3.37D-03
      PEZero:  N= 7 I= 4 D=  9.76D-04 Err=  5.50D-03
    Cycle     7 NS=   384 Truncation Error =  0.003370888
      PEZero:  N= 8 I= 7 D=  1.22D-04 Err=  1.17D-02
      PEZero:  N= 8 I= 6 D=  3.66D-04 Err=  7.95D-06
      PEZero:  N= 8 I= 5 D=  6.10D-04 Err=  2.03D-03
    Cycle     8 NS=   512 Truncation Error =  0.000007953
 BS completed in    8 cycles and    1680 integration steps.
 Maximum DWI energy   std dev =  0.000000035 at pt    40
 Maximum DWI gradient std dev =  0.080159339 at pt    -1
 SUMMARY OF CORRECTOR INTEGRATION:
   Predictor End Point Energy =     0.030866
   Old End Point Energy       =     0.030866
   Corrected End Point Energy =     0.030866
   Predictor End-Start Dist.  =     0.187299
   Old End-Start Dist.        =     0.183778
   New End-Start Dist.        =     0.191077
   New End-Old End Dist.      =     0.007300
 CORRECTOR INTEGRATION CONVERGENCE:
   Recorrection delta-x convergence threshold:    0.010000
   Delta-x Convergence Met
 Point Number:  14          Path Number:   2
                    CURRENT STRUCTURE
                Cartesian Coordinates (Ang):                
 ---------------------------------------------------------------------
 Center     Atomic                     Coordinates (Angstroms)
 Number     Number                        X           Y           Z
 ---------------------------------------------------------------------
      1          7                   -0.161185    0.772281    3.866767
      2          1                   -0.015746   -0.088823    4.413825
      3          1                    0.567341    1.451728    4.130448
      4          1                   -1.079453    1.166204    4.118827
      5          6                   -0.099245    0.475512    2.380864
      6         53                    0.033340   -0.159741   -0.799814
      7          1                   -0.881231   -0.256265    2.087315
      8          1                    0.887382    0.050380    2.099795
      9          1                   -0.255011    1.398245    1.782975
 ---------------------------------------------------------------------
   CHANGE IN THE REACTION COORDINATE =    0.19108
   NET REACTION COORDINATE UP TO THIS POINT =    4.31789
  # OF POINTS ALONG THE PATH =  29
  # OF STEPS =   7

 PES minimum detected on this side of the pathway.
    Magnitude of the gradient =      0.0000020
 Calculation of REVERSE path complete.
 Reaction path calculation complete.
 
 Energies reported relative to the TS energy of           0.043001
 --------------------------------------------------------------------------
    Summary of reaction path following
 --------------------------------------------------------------------------
                        Energy    RxCoord
   1                   -0.01213  -4.31789
   2                   -0.01212  -4.12682
   3                   -0.01202  -3.80854
   4                   -0.01182  -3.49028
   5                   -0.01152  -3.17204
   6                   -0.01110  -2.85381
   7                   -0.01056  -2.53558
   8                   -0.00988  -2.21735
   9                   -0.00906  -1.89919
  10                   -0.00806  -1.58529
  11                   -0.00653  -1.27233
  12                   -0.00435  -0.95456
  13                   -0.00216  -0.63642
  14                   -0.00058  -0.31827
  15                    0.00000   0.00000
  16                   -0.00062   0.31827
  17                   -0.00249   0.63642
  18                   -0.00552   0.95460
  19                   -0.00955   1.27279
  20                   -0.01433   1.59098
  21                   -0.01955   1.90917
  22                   -0.02490   2.22736
  23                   -0.03008   2.54556
  24                   -0.03479   2.86376
  25                   -0.03876   3.18194
  26                   -0.04174   3.49991
  27                   -0.04360   3.81575
  28                   -0.04460   4.12511
  29                   -0.04533   4.44251
  30                   -0.04592   4.76073
 --------------------------------------------------------------------------
 
 Total number of points:                   29
 Total number of gradient calculations:    37
 Total number of Hessian calculations:     30
 IRC-IRC-IRC-IRC-IRC-IRC-IRC-IRC-IRC-IRC-IRC-IRC-IRC-IRC-IRC-IRC-IRC-IRC
 Leave Link  123 at Thu Dec 11 19:59:06 2025, MaxMem=   268435456 cpu:               0.0 elap:               0.4
 (Enter D:\G16W\l202.exe)
                          Input orientation:                          
 ---------------------------------------------------------------------
 Center     Atomic      Atomic             Coordinates (Angstroms)
 Number     Number       Type             X           Y           Z
 ---------------------------------------------------------------------
      1          7           0       -0.161160    0.772162    3.866170
      2          1           0       -0.015719   -0.088953    4.413238
      3          1           0        0.567375    1.451618    4.129857
      4          1           0       -1.079441    1.166090    4.118236
      5          6           0       -0.099220    0.475390    2.380250
      6         53           0        0.033334   -0.159711   -0.799663
      7          1           0       -0.881229   -0.256390    2.086776
      8          1           0        0.887429    0.050263    2.099257
      9          1           0       -0.254993    1.398163    1.782428
 ---------------------------------------------------------------------
                    Distance matrix (angstroms):
                    1          2          3          4          5
     1  N    0.000000
     2  H    1.030512   0.000000
     3  H    1.030512   1.671426   0.000000
     4  H    1.030512   1.671426   1.671426   0.000000
     5  C    1.516532   2.111515   2.111515   2.111515   0.000000
     6  I    4.761955   5.213612   5.213612   5.213612   3.245423
     7  H    2.177766   2.487884   3.031489   2.487884   1.110480
     8  H    2.177766   2.487884   2.487884   3.031489   1.110480
     9  H    2.177766   3.031489   2.487884   2.487884   1.110480
                    6          7          8          9
     6  I    0.000000
     7  H    3.029406   0.000000
     8  H    3.029407   1.795089   0.000000
     9  H    3.029406   1.795089   1.795089   0.000000
 Symmetry turned off by external request.
 This structure is nearly, but not quite of a higher symmetry.
 Consider Symm=Loose if the higher symmetry is desired.
 Stoichiometry    CH6IN
 Framework group  C1[X(CH6IN)]
 Deg. of freedom    21
 Full point group                 C1      NOp   1
 Rotational constants (GHZ):          83.3534461           1.1357936           1.1357936
 Leave Link  202 at Thu Dec 11 19:59:06 2025, MaxMem=   268435456 cpu:               0.0 elap:               0.0
 (Enter D:\G16W\l601.exe)
 Copying SCF densities to generalized density rwf, IOpCl= 0 IROHF=0.

 **********************************************************************

            Population analysis using the SCF density.

 **********************************************************************

 Alpha  occ. eigenvalues --   -1.52360  -0.96717  -0.78912  -0.78912  -0.69394
 Alpha  occ. eigenvalues --   -0.65201  -0.56628  -0.56628  -0.25673  -0.25439
 Alpha  occ. eigenvalues --   -0.25439
 Alpha virt. eigenvalues --   -0.04063   0.03983   0.06669   0.06669   0.13253
 Alpha virt. eigenvalues --    0.13253   0.16747   4.96985   4.97004   4.97004
 Alpha virt. eigenvalues --    4.97593   4.97593
          Condensed to atoms (all electrons):
               1          2          3          4          5          6
     1  N    5.198126   0.000000   0.000000   0.000000   0.000000   0.000000
     2  H    0.000000   0.717173   0.000000   0.000000   0.000000   0.000000
     3  H    0.000000   0.000000   0.717173   0.000000   0.000000   0.000000
     4  H    0.000000   0.000000   0.000000   0.717173   0.000000   0.000000
     5  C    0.000000   0.000000   0.000000   0.000000   4.330459   0.000000
     6  I    0.000000   0.000000   0.000000   0.000000   0.000000   7.974577
     7  H    0.000000   0.000000   0.000000   0.000000   0.000000   0.000000
     8  H    0.000000   0.000000   0.000000   0.000000   0.000000   0.000000
     9  H    0.000000   0.000000   0.000000   0.000000   0.000000   0.000000
               7          8          9
     1  N    0.000000   0.000000   0.000000
     2  H    0.000000   0.000000   0.000000
     3  H    0.000000   0.000000   0.000000
     4  H    0.000000   0.000000   0.000000
     5  C    0.000000   0.000000   0.000000
     6  I    0.000000   0.000000   0.000000
     7  H    0.781772   0.000000   0.000000
     8  H    0.000000   0.781773   0.000000
     9  H    0.000000   0.000000   0.781772
 Mulliken charges:
               1
     1  N   -0.198126
     2  H    0.282827
     3  H    0.282827
     4  H    0.282827
     5  C   -0.330459
     6  I   -0.974577
     7  H    0.218228
     8  H    0.218227
     9  H    0.218228
 Sum of Mulliken charges =   0.00000
 Mulliken charges with hydrogens summed into heavy atoms:
               1
     1  N    0.650354
     5  C    0.324223
     6  I   -0.974577
 APT charges:
               1
     1  N   -0.198126
     2  H    0.282827
     3  H    0.282827
     4  H    0.282827
     5  C   -0.330459
     6  I   -0.974577
     7  H    0.218228
     8  H    0.218227
     9  H    0.218228
 Sum of APT charges =   0.00000
 APT charges with hydrogens summed into heavy atoms:
               1
     1  N    0.650354
     5  C    0.324223
     6  I   -0.974577
 Charge=              0.0000 electrons
 Dipole moment (field-independent basis, Debye):
    X=             -0.8461    Y=              4.0639    Z=             20.2902  Tot=             20.7104
 N-N= 6.136435271766D+01 E-N=-7.138090372279D+01  KE=-3.665999509302D+01
  Exact polarizability:   0.000   0.000   0.000   0.000   0.000   0.000
 Approx polarizability:  11.473  -0.109  11.974  -0.545   2.606  23.490
 Leave Link  601 at Thu Dec 11 19:59:06 2025, MaxMem=   268435456 cpu:               0.0 elap:               0.1
 (Enter D:\G16W\l9999.exe)

 This type of calculation cannot be archived.


 EDUCATION DOESN'T COST 
           ... IT PAYS!

 -- POSTMARK, UNIV. OF MISSISSIPPI, DEC 78
 Job cpu time:       0 days  0 hours  1 minutes 43.0 seconds.
 Elapsed time:       0 days  0 hours  1 minutes  0.4 seconds.
 File lengths (MBytes):  RWF=      7 Int=      0 D2E=      0 Chk=      3 Scr=      1
 Normal termination of Gaussian 16 at Thu Dec 11 19:59:07 2025.
